# vtk DataFile Version 2.0
Unstructured Grid Example
ASCII
DATASET UNSTRUCTURED_GRID
POINTS 17773 double
0.0 0.552641 -0.002025
0.0 0.552641 0.0
0.00334435244261 0.552641 0.0
0.00337460188434 0.552641 -0.002025
0.00246240520633 0.550417197387 -0.002025
0.00242397655929 0.550466372258 0.0
0.0 0.549269784139 -0.002025
0.0 0.549269784139 0.0
0.00758462834993 0.552641 0.0
0.0076544207894 0.552641 -0.002025
0.0 0.544983443269 0.0
0.0 0.544983443269 -0.002025
0.00559627389327 0.549844329796 0.0
0.00563968870962 0.550022014328 -0.002025
0.00292151668933 0.547233850137 -0.002025
0.00288601599241 0.547326240413 0.0
0.0 0.540268363403 -0.002025
0.0 0.540268363403 0.0
0.0123450188921 0.552641 -0.002025
0.0122684469336 0.552641 0.0
0.00383020081638 0.54308507632 -0.002025
0.00996441344481 0.548773591126 -0.002025
0.00986538540686 0.548863234036 0.0
0.00382110121205 0.542638903767 0.0
0.00707604096378 0.545705565416 0.0
0.00714191399664 0.545310752684 -0.002025
0.00544411311188 0.544187275083 -0.00107061318492
0.0169892916383 0.552641 0.0
0.017069139553 0.552641 -0.002025
0.152 0.552641 0.0
0.152 0.552641 -0.002025
0.0217101483073 0.552641 0.0
0.0217932695733 0.552641 -0.002025
0.0264310049762 0.552641 0.0
0.0265173995936 0.552641 -0.002025
0.0 0.53552879181 -0.002025
0.0 0.53552879181 0.0
0.00410188811675 0.538296282087 -0.002025
0.0041104597249 0.537898577606 0.0
0.0145663954226 0.548278651831 -0.002025
0.014628869286 0.548536216561 0.0
0.00791694556994 0.540707477012 -0.002025
0.011982552655 0.543396376513 -0.002025
0.0119528582293 0.544642208235 0.0
0.00880145067137 0.540580831971 0.0
0.0193497199728 0.548536212935 0.0
0.0194312045631 0.548535220753 -0.002025
0.0 0.530789218858 -0.002025
0.0 0.530789218858 0.0
0.0 0.526049645905 -0.002025
0.0 0.526049645905 0.0
0.0311518616451 0.552641 0.0
0.0312415296139 0.552641 -0.002025
0.0358727183141 0.552641 0.0
0.0359656596343 0.552641 -0.002025
0.040593574983 0.552641 0.0
0.0406897896546 0.552641 -0.002025
0.0453144316519 0.552641 0.0
0.0454139196749 0.552641 -0.002025
0.0500352883209 0.552641 0.0
0.0501380496952 0.552641 -0.002025
0.148655647557 0.552641 0.0
0.148579185907 0.552641 -0.002025
0.149551483278 0.550197407183 0.0
0.149466931796 0.550036433408 -0.002025
0.152 0.549252154155 0.0
0.152 0.549251829683 -0.002025
0.144336732913 0.552641 -0.002025
0.14441537165 0.552641 0.0
0.0240705766417 0.548536212935 0.0
0.0241553345835 0.548535220753 -0.002025
0.0287914333107 0.548536212935 0.0
0.0288794646038 0.548535220753 -0.002025
0.00411046013718 0.533159005334 -0.002025
0.00410705938548 0.533141134398 0.0
0.0170547713826 0.544509442631 -0.002025
0.00814879907732 0.535740528988 -0.002025
0.00826722556745 0.535437676967 0.0
0.0169892914762 0.544431429496 0.0
0.0120747300683 0.538230876948 -0.002025
0.0154940321654 0.540545169104 -0.002025
0.0142219159999 0.540673657967 0.0
0.0120403699005 0.537039273033 0.0
0.0217101483073 0.54443142587 0.0
0.0217932695733 0.544429441506 -0.002025
0.00411046013718 0.528419432381 -0.002025
0.00411046013718 0.528419432381 0.0
0.0 0.521310072953 0.0
0.00411046013718 0.523679859429 -0.002025
0.0 0.521310072953 -0.002025
0.00411046013718 0.523679859429 0.0
0.0 0.5165705 0.0
0.0 0.5165705 -0.002025
0.0 0.511830927047 0.0
0.0 0.511830927047 -0.002025
0.0335122899796 0.548536212935 0.0
0.0336035946241 0.548535220753 -0.002025
0.0382331466485 0.548536212935 0.0
0.0383277246444 0.548535220753 -0.002025
0.0429540033175 0.548536212935 0.0
0.0430518546647 0.548535220753 -0.002025
0.0547561449898 0.552641 0.0
0.0548621797155 0.552641 -0.002025
0.0476748599864 0.548536212935 0.0
0.0477759846851 0.548535220753 -0.002025
0.0523957166553 0.548536212935 0.0
0.0525001147054 0.548535220753 -0.002025
0.146357178682 0.549891004544 0.0
0.146148624604 0.549779722776 -0.002025
0.14916099575 0.547236811334 0.0
0.149090740912 0.547076343085 -0.002025
0.152 0.544944150334 0.0
0.152 0.544943444403 -0.002025
0.139798133518 0.552641 -0.002025
0.141913035462 0.549371602036 -0.002025
0.135130633267 0.552641 -0.002025
0.139731553066 0.552641 0.0
0.142083461247 0.548938503892 0.0
0.0264310049762 0.54443142587 0.0
0.0265173995936 0.544429441506 -0.002025
0.0311518616451 0.54443142587 0.0
0.0312415296139 0.544429441506 -0.002025
0.00822092027436 0.530789218858 -0.002025
0.00823129975921 0.530728940542 0.0
0.0195026976624 0.540319976495 -0.002025
0.0122664623282 0.533427702858 -0.002025
0.0123900153396 0.53304955484 0.0
0.0193230922421 0.540273132076 0.0
0.0167219940152 0.535983347511 -0.002025
0.016585679876 0.535891464729 0.0
0.0240705766417 0.540326638804 0.0
0.0241553345835 0.540323662259 -0.002025
0.00822092027436 0.526049645905 -0.002025
0.00822092027436 0.526049645905 0.0
0.00411046013718 0.518940286476 0.0
0.00822092027436 0.521310072953 -0.002025
0.00411046013718 0.518940286476 -0.002025
0.00822092027436 0.521310072953 0.0
0.0 0.507091354095 -0.002025
0.0 0.507091354095 0.0
0.0 0.502351781142 -0.002025
0.0 0.502351781142 0.0
0.00411046013718 0.514200713524 0.0
0.00411046013718 0.514200713524 -0.0010125
0.00411046013718 0.514200713524 -0.002025
0.00411046013718 0.509461140571 0.0
0.00411046013718 0.509461140571 -0.002025
0.00822092027436 0.5165705 -0.002025
0.0358727183141 0.54443142587 0.0
0.0359656596343 0.544429441506 -0.002025
0.040593574983 0.54443142587 0.0
0.0406897896546 0.544429441506 -0.002025
0.0453144316519 0.54443142587 0.0
0.0454139196749 0.544429441506 -0.002025
0.0 0.488157556731 0.0
0.0 0.483871215861 0.0
0.0 0.4805 0.0
0.0 0.483871215861 -0.002025
0.0 0.4805 -0.002025
0.0594770016587 0.552641 0.0
0.0595863097359 0.552641 -0.002025
0.0641978583277 0.552641 0.0
0.0643104397562 0.552641 -0.002025
0.0689187149966 0.552641 0.0
0.0690345697765 0.552641 -0.002025
0.0571165733243 0.548536212935 0.0
0.0572242447257 0.548535220753 -0.002025
0.0500352883209 0.54443142587 0.0
0.0501380496952 0.544429441506 -0.002025
0.0547561449898 0.54443142587 0.0
0.0548621797155 0.544429441506 -0.002025
0.144686201113 0.545533485902 0.0
0.144009766127 0.545025866879 -0.002025
0.14797771068 0.542636862962 0.0
0.147902213018 0.542585716724 -0.002025
0.152 0.540228688041 0.0
0.152 0.540227989044 -0.002025
0.135010708362 0.552641 0.0
0.13042043962 0.552641 -0.002025
0.12571021981 0.552641 -0.002025
0.137577575001 0.548891152172 -0.002025
0.139854894013 0.546201521641 -0.002025
0.130289851693 0.552641 0.0
0.132992379009 0.548884580307 -0.002025
0.137371130714 0.548536216561 0.0
0.13995035789 0.544702514918 0.0
0.0736395716655 0.552641 0.0
0.0737586997968 0.552641 -0.002025
0.125568995024 0.552641 0.0
0.121 0.552641 -0.002025
0.120848138355 0.552641 0.0
0.0783604283345 0.552641 0.0
0.0287914333107 0.540326638804 0.0
0.0288794646038 0.540323662259 -0.002025
0.0335122899796 0.540326638804 0.0
0.0336035946241 0.540323662259 -0.002025
0.0123313804115 0.528419432381 -0.002025
0.0123313804115 0.528419432381 0.0
0.0217986914832 0.536696682682 -0.002025
0.0163754882953 0.530654498573 -0.002025
0.0163597739958 0.530633202805 0.0
0.0216779952827 0.536541395979 0.0
0.0200521521602 0.532976625685 -0.002025
0.0199834289429 0.532722259717 0.0
0.0264310049762 0.536221851739 0.0
0.0265271543348 0.536279542554 -0.002025
0.0123313804115 0.523679859429 -0.002025
0.0123313804115 0.518940286476 -0.002025
0.0123313804115 0.523679859429 0.0
0.00822092027436 0.5165705 0.0
0.0123313804115 0.518940286476 0.0
0.0 0.488157556731 -0.002025
0.0 0.49761220819 0.0
0.0 0.492872636597 0.0
0.0021690425596 0.494656742706 -0.0010125
0.0 0.49761220819 -0.002025
0.0 0.492872636597 -0.002025
0.00411046013718 0.504721567619 -0.002025
0.00411046013718 0.504721567619 0.0
0.00411046013718 0.499981994666 -0.002025
0.00397890165359 0.499670190075 -0.0010125
0.00411046013718 0.499981994666 0.0
0.00822092027436 0.511830927047 0.0
0.00822092027436 0.511830927047 -0.002025
0.00822092027436 0.507091354095 0.0
0.00822092027436 0.507091354095 -0.002025
0.0123313804115 0.514200713524 -0.002025
0.0382331466485 0.540326638804 0.0
0.0383277246444 0.540323662259 -0.002025
0.0429540033175 0.540326638804 0.0
0.0430518546647 0.540323662259 -0.002025
0.0476748599864 0.540326638804 0.0
0.0477759846851 0.540323662259 -0.002025
0.00358330541074 0.490448959055 0.0
0.00299920374473 0.48645311717 0.0
0.0029773344929 0.486348130032 -0.002025
0.00301590676507 0.483020337691 0.0
0.00293640644896 0.4805 0.0
0.00574447624759 0.484503205838 0.0
0.00570822739252 0.484327754113 -0.0010125
0.00301993190233 0.483029043936 -0.002025
0.00293640644896 0.4805 -0.002025
0.00574149095343 0.484468867962 -0.002025
0.0784828298171 0.552641 -0.002025
0.0830812850034 0.552641 0.0
0.0832069598375 0.552641 -0.002025
0.0618374299932 0.548536212935 0.0
0.061948374746 0.548535220753 -0.002025
0.0665582866621 0.548536212935 0.0
0.0666725047663 0.548535220753 -0.002025
0.0712791433311 0.548536212935 0.0
0.0713966347867 0.548535220753 -0.002025
0.0594770016587 0.54443142587 0.0
0.0595863097359 0.544429441506 -0.002025
0.0525001147054 0.540323662259 -0.002025
0.0523957166553 0.540326638804 0.0
0.0571165733243 0.540326638804 0.0
0.0572242447257 0.540323662259 -0.002025
0.116127281686 0.552641 0.0
0.11627586998 0.552641 -0.002025
0.13997943118 0.542410794759 -0.002025
0.143004611966 0.540845035525 0.0
0.143789302877 0.540232959616 -0.002025
0.147889760174 0.537859264983 0.0
0.147889762033 0.537858569053 -0.002025
0.152 0.535489841926 0.0
0.152 0.535489149063 -0.002025
0.132650280027 0.548536212935 0.0
0.12829145956 0.549375057765 -0.002025
0.12433657695 0.549805082922 -0.002025
0.135865199825 0.544541948029 -0.002025
0.130707489486 0.545346906745 -0.002025
0.127929423358 0.548536212935 0.0
0.135088022694 0.544495923106 0.0
0.136816310796 0.5406025022 -0.002025
0.137651096199 0.540476427018 0.0
0.076 0.548536212935 0.0
0.076120764807 0.548535220753 -0.002025
0.123208566689 0.548536212935 0.0
0.117839032065 0.549064601646 -0.002025
0.121 0.54791757265 -0.002025
0.0878021416723 0.552641 0.0
0.0879310898578 0.552641 -0.002025
0.111406425017 0.552641 0.0
0.111551739959 0.552641 -0.002025
[...]
POINT_DATA 17773
VECTORS FID_FibreOrientation double
1.76226044768 1.25103422395 0.338422858358
1.76204919654 1.25165353981 0.338372885733
1.76266752542 1.25151561364 0.338323340825
1.76313031252 1.25063511685 0.338741530023
1.76315709364 1.25104977213 0.339301303959
1.7628453806 1.25203391268 0.339138424827
1.76301441673 1.25086638258 0.339310930117
1.76269009681 1.25197473632 0.339432607747
1.76415106693 1.25115835612 0.33896211581
1.7649941699 1.25031910423 0.339481764919
1.76309247938 1.25280813913 0.341717056504
1.76317975092 1.25180788546 0.34153899548
1.76373810691 1.25211676809 0.340039874228
1.76423916069 1.25080359693 0.340206310237
1.76379480407 1.25149132014 0.341053932343
1.76333720767 1.25263430418 0.340897390505
1.76348091014 1.25292625599 0.344071123494
1.76323803111 1.25385394229 0.343976686987
1.76706161595 1.2485622282 0.341396379726
1.76494798285 1.25033241513 0.342829282037
1.76437942121 1.25232628604 0.343517560765
1.76527919333 1.25036539264 0.341481123756
1.76496330752 1.2519981535 0.341596187407
1.76389459574 1.25348329722 0.343520262146
1.76464275088 1.25308645724 0.343205289816
1.76583307297 1.25181339394 0.343730452754
1.76460960213 1.25268712527 0.343458475753
1.76277926491 1.25172921663 0.348758090494
1.74191811202 1.2637496942 0.338751134151
1.8068690164 1.23911210063 0.351955311325
1.80721986901 1.23992439698 0.352212975057
1.74191306329 1.22784043019 0.291956352703
1.67092051568 1.29684917045 0.263985133607
1.70780337703 1.20917281207 0.0320022203852
1.61766981929 1.26674226966 0.0268748710549
1.76361064468 1.25366737426 0.345985127031
1.76335126871 1.25451942802 0.345898165557
1.76429589558 1.25314824489 0.345638619764
1.76398357164 1.25410833543 0.34567026566
1.75958337393 1.24846497687 0.333322865864
1.76587206151 1.25307157723 0.335334673665
1.76562537272 1.25318472344 0.345972772141
1.7668062394 1.25308730614 0.346337762897
1.76584219596 1.2543177168 0.346880774624
1.76531227916 1.25409784117 0.345994517093
1.75304513667 1.25138677092 0.291480147804
1.69753625919 1.26132229643 0.271493356133
1.76366308872 1.25421567133 0.347793696163
1.7633411138 1.25501006623 0.347660100071
1.76382035803 1.25451763425 0.349649073785
1.76339816734 1.25536944252 0.349491702966
1.74615086079 1.19301054548 -0.164732031672
1.6983318631 1.24062022007 -0.151541525796
1.78932845087 1.20736555976 -0.274943913347
1.7635569492 1.22992815823 -0.266161965896
1.81213145338 1.22480112309 -0.339202705964
1.79778908693 1.23364265428 -0.335708149924
1.81633030086 1.23723317851 -0.368753279133
1.81013433725 1.24035555184 -0.368220117655
1.8150958417 1.24454226505 -0.379682975277
1.81197958335 1.24475729474 -0.380714005317
1.80846462708 1.23822568285 0.351333011036
1.80833507051 1.2395198847 0.351556027621
1.80912731757 1.23710129562 0.349112795525
1.80974039151 1.23867096438 0.348971087449
1.80889427131 1.23765785806 0.348754024841
1.80924324072 1.23894846507 0.348934646909
1.8099064153 1.23858841495 0.348986003565
1.81052194873 1.23733442383 0.348956085916
1.71515836946 1.24225784032 0.0441253386976
1.58639822272 1.24624383549 0.032848231299
1.72496784618 1.22927966958 -0.194838918452
1.65535438566 1.24259008942 -0.170565473132
1.76425295952 1.25384437898 0.347793487573
1.76391188981 1.2546955921 0.347634518886
1.7293629342 1.24944303468 0.311730917227
1.76546640815 1.25357130055 0.348101704508
1.76512704911 1.25436529792 0.347977235046
1.78082112287 1.25324995258 0.341816594822
1.76536909917 1.25450996709 0.346780933331
1.75230069851 1.25262401549 0.341700036918
1.7661730189 1.25393653578 0.348514695855
1.76598967374 1.25456948081 0.348164362597
1.73117624633 1.25093707099 0.22054040219
1.62148217069 1.24267670417 0.190783029276
1.76439057978 1.25429991976 0.34968757141
1.76401104304 1.25513786027 0.349479691393
1.76370462063 1.25580567781 0.351721120217
1.76465942571 1.25466791393 0.351839871453
1.76420208196 1.25485695327 0.351803658879
1.76413013736 1.25565978857 0.351693455995
1.76449147301 1.25615017955 0.354085298863
1.76499815131 1.2552026223 0.35415094849
1.76512898379 1.25659069764 0.356314207709
1.76548371037 1.25577504665 0.356246273808
1.76256953147 1.22217431907 -0.291010985356
1.73339512911 1.24252699324 -0.273697624922
1.79473262343 1.22870066533 -0.339459736012
1.77864580928 1.24175637212 -0.331444261689
1.80921706631 1.23668108779 -0.36658442997
1.80099972017 1.243761905 -0.364242662263
1.81140758977 1.24667836054 -0.383545831119
1.81036080416 1.24696859934 -0.384635122427
1.81452421329 1.24262275967 -0.37941277566
1.809524144 1.24662285345 -0.380085719999
1.81315629698 1.24578784605 -0.38573982051
1.81094475009 1.24790484782 -0.386651586384
1.81051982176 1.23651802242 0.347546808181
1.81174954992 1.23768540273 0.346937153207
1.81019419933 1.23590650808 0.346310291428
1.81038514558 1.23738609409 0.346428221202
1.80976150241 1.2347506033 0.344170140132
1.80951318528 1.23586779705 0.34487301741
1.81304636962 1.23687606905 0.34591213467
1.81318001942 1.23658557147 0.34503656805
1.81815727872 1.23441306287 0.34345140803
1.81334275729 1.23595921179 0.345858951055
1.81264761165 1.23512501726 0.344572236313
1.70354898916 1.24209241453 -0.117650170738
1.60567005925 1.23766337578 -0.110136729028
1.74391610835 1.24184139307 -0.281234974722
1.69444344857 1.24519385091 -0.253249366531
1.76580334291 1.25449396317 0.350685108353
1.76501241264 1.25525427434 0.3501962236
1.70244362521 1.25340861226 0.296239351046
1.76657077184 1.25365160886 0.349614600438
1.7666570072 1.2544008188 0.351714893744
1.76444421657 1.25323646055 0.315884247494
1.75062042342 1.25521659202 0.333510858261
1.76465747227 1.25641421437 0.344403033374
1.71562207007 1.24909948187 0.0867427144771
1.58663590459 1.24146988014 0.0767552702098
1.76544128286 1.25477278177 0.352295854905
1.76487614531 1.25571401827 0.352036050426
1.76473629576 1.25626810899 0.353985718802
1.76653547329 1.25499775927 0.355011714884
1.76544094685 1.25524465061 0.354276468872
1.76539745782 1.2564611656 0.354743755432
1.76627866572 1.25643742433 0.358194319584
1.76555119073 1.25714456165 0.358136111053
1.76649736904 1.25724845433 0.359768883037
1.76575423401 1.25788359869 0.359720503196
1.76533096886 1.25689071114 0.356363733821
1.76583242597 1.25649064986 0.356444042954
1.76610125699 1.2560017003 0.356559336066
1.76596552334 1.2575487754 0.358413835709
1.76671373236 1.25675765331 0.358671988
1.76713166242 1.25599873505 0.357534601774
1.77928241965 1.23927419632 -0.345473515772
1.7602399479 1.24540948568 -0.32956074695
1.8004485902 1.24170294651 -0.371378229751
1.79131713278 1.24691058622 -0.365274995463
1.81264573816 1.244306467 -0.38356509009
1.80619516329 1.24874633992 -0.383015403815
1.76497047696 1.26239814172 0.366224106947
1.7641848633 1.26454871265 0.369880034741
1.7637593055 1.26479336023 0.371845219818
1.76483967175 1.26281681311 0.369657171583
1.76430460766 1.26393740674 0.371928739684
1.8084026484 1.24760177824 -0.384608488519
1.80809168899 1.24800255587 -0.38555275842
1.80613874095 1.24786017886 -0.384675795416
1.80603456562 1.2483827046 -0.385447280986
1.80459185157 1.2477958034 -0.384651743213
1.80444650346 1.24842094357 -0.385274369749
1.8108585724 1.2468421406 -0.386636103036
1.81065503399 1.2484784229 -0.387495057515
1.81380150533 1.24690436804 -0.389808764466
1.81139637958 1.2501098159 -0.390421300708
1.81298059438 1.2480941455 -0.392106526916
1.81213007058 1.25089385894 -0.392826231371
1.81116992287 1.23621858553 0.345018488437
1.81123304311 1.23601459303 0.344283749928
1.80981935293 1.23640948448 0.345039837635
1.80955336008 1.23626261808 0.344913688592
1.80914999765 1.2341314697 0.343439745413
1.80829780207 1.23420119069 0.343679929843
1.81946971516 1.23390444994 0.34383776105
1.82964066978 1.23300581098 0.349332201134
1.87014339185 1.24133802754 0.391117379479
1.81563257414 1.23442108155 0.343298407655
1.81268758737 1.2353192616 0.343926999332
1.83776180087 1.23365957471 0.3528732056
1.8180512342 1.23206266106 0.345491035987
1.81563207282 1.23382641158 0.343868706809
1.81203223485 1.23648705789 0.345390881876
1.80369504998 1.2476528332 -0.385076515276
1.80337528611 1.24831385517 -0.385574638153
1.89461348956 1.22508739306 0.407423828367
1.98598815322 1.36454916491 0.465627025224
1.88754726329 1.2183841724 0.468716426185
1.80336895435 1.24761885393 -0.38634366803
1.71357448137 1.24750564993 -0.224521542505
1.65274072494 1.24135438527 -0.205298748962
1.76206827724 1.24696981031 -0.330543076653
1.72946972841 1.24589335912 -0.306071460557
1.76734937412 1.25502074786 0.352526866259
1.7647054722 1.25624751566 0.352629687791
1.62890009319 1.24490731857 0.194061014578
1.75553823847 1.25488285312 0.340475415183
1.75735991491 1.25917638846 0.358280737132
1.71702562887 1.2510261938 0.226369508091
1.69158892868 1.25525412486 0.274410258818
1.73624891123 1.2522804806 0.294544206752
1.68595361462 1.24531774767 -0.0831833725831
1.57893996916 1.24177018496 -0.0739474463173
1.76574265322 1.25543108627 0.354261272464
1.76698868403 1.25558037216 0.357590286611
1.76319990372 1.25717250704 0.355704061106
1.76635775466 1.25703337891 0.357282881826
1.76904475262 1.25753204995 0.355866570154
1.76588408671 1.26089333493 0.365900226792
1.76581062334 1.25877252821 0.361272301654
1.76557785625 1.26025307012 0.363261602895
1.76660128574 1.25954840146 0.363300417054
1.76666484349 1.25808258877 0.36117925783
1.76652230129 1.25922274439 0.363047310232
1.76721624194 1.25755121403 0.360402703828
1.76644422676 1.25822939896 0.36030633
1.76756879054 1.25843641969 0.362118729451
1.76714690403 1.25876348545 0.36212270599
1.76670897067 1.25906579878 0.362002640764
1.76683743657 1.25763721756 0.359394930586
1.76789685604 1.25666547297 0.359460274395
1.76725128389 1.25835384862 0.36124650359
1.76843088971 1.257616885 0.361399684969
1.76856729049 1.25669622051 0.358907220534
1.79011665669 1.24635285054 -0.3695690174
1.77642904913 1.2481345983 -0.35846207863
1.80934620909 1.24694233816 -0.384814238382
1.79991154212 1.24976026359 -0.382181091871
1.81385474773 1.24904826635 -0.393443752442
1.80984235352 1.25111931824 -0.392863583104
1.76616272673 1.26159167456 0.366148245507
1.7654124296 1.26337182459 0.368917883708
1.76646150278 1.26182911164 0.369030272019
1.76475602763 1.26475805225 0.371806121489
1.76416756816 1.26490619955 0.372874272735
1.7662946734 1.26447867673 0.371996941153
1.76684794552 1.26365969493 0.372220174231
1.76574055539 1.26322879814 0.371838956821
1.76522637492 1.26417751578 0.37347713887
1.76731403186 1.26278887683 0.372224105133
1.8027868738 1.2482164904 -0.386737416523
1.8035207371 1.24793713043 -0.388886321237
1.80258104957 1.24830983295 -0.389209053078
1.80914759882 1.24745737629 -0.386906967559
1.8092825215 1.24894350277 -0.387590070766
1.80782308673 1.24785939469 -0.386589670134
1.80806972708 1.24908381251 -0.38733772914
1.80726161918 1.24779153304 -0.386898892756
1.8072230647 1.24905182846 -0.387291496666
1.81164814272 1.24866259 -0.391514707643
1.81169116351 1.2510511308 -0.392490280595
1.81328131677 1.25225144484 -0.396912251509
1.8141946099 1.24984962357 -0.397374229237
1.8135116184 1.25070873991 -0.396144993118
1.81365616227 1.25251754277 -0.397060981655
1.61515007473 1.26799388494 0.297923367081
1.67129137151 1.12048061943 0.254537876235
1.81005097451 1.23657273947 0.345867727461
1.80969383777 1.23838747448 0.347229078125
1.80839062197 1.23715163432 0.346246687244
1.80814463611 1.23779358909 0.346607534459
1.80724196128 1.2367154955 0.345990507118
1.80746596776 1.23523927215 0.345278469925
1.8062972924 1.23452169914 0.345135816429
1.82140066302 1.23272217904 0.347790725295
1.82753368032 1.23218221473 0.360259953765
1.86093701518 1.22787984797 0.394627876478
1.81195953896 1.23507700652 0.346092661477
1.81498241225 1.23538052029 0.353806919674
1.83461363618 1.24078215507 0.373088196197
1.81479208059 1.23705647158 0.348753844345
1.80836507041 1.23892884114 0.349732974843
1.8103172051 1.24054184999 0.351006632977
1.8069483557 1.24796709463 -0.387308439063
1.80677487536 1.24894088937 -0.387770155838
1.84983590446 1.22825483161 0.394129204266
1.76836575857 1.29339402384 0.348877221076
1.86462418242 1.32439002588 0.39226615292
1.80378046536 1.24950583295 -0.394315673369
1.8029072225 1.24831285642 -0.394352876925
1.50321743944 1.33234697743 0.00428893300016
1.65486761187 1.25445629024 0.0182195443568
1.70583708485 1.26680258434 -0.378196375644
1.78060659199 1.26247912957 -0.425009075639
1.64805428137 1.30187772138 -0.342743125858
1.80346796745 1.25269064197 -0.401055740004
1.80256058103 1.250767649 -0.401322300253
1.76736649544 1.27928967129 -0.41712366593
1.79800443471 1.26152238789 -0.412325238919
1.79692459783 1.25408293125 -0.414232506764
1.75320293612 1.31579431677 0.277284460513
1.80743324961 1.24817932093 -0.388809949426
1.72923838704 1.24982528715 -0.282912130465
1.78233698499 1.24826290097 -0.361302526137
1.68915864947 1.24382872725 -0.261113947595
1.75277749381 1.24894686552 -0.342240721098
1.75355129414 1.25274704915 0.339427841575
1.76276149786 1.25680768652 0.354550670833
1.54629477246 1.24001052315 0.0970616427788
1.65290179217 1.25255769657 0.239116273247
1.72919410105 1.24741953111 0.26546547206
1.69297178413 1.25123791409 0.113705779954
1.70169459688 1.25034388344 -0.204559871376
1.62481341772 1.24261197612 -0.18708424365
1.76710499185 1.25727246147 0.352344978464
1.75815889964 1.25415752345 0.350738415975
1.76635124142 1.25650867978 0.35578016879
1.76774629237 1.25684256672 0.360807966093
1.77242128024 1.25546407961 0.35575920559
1.76725778147 1.26048608605 0.366261116028
1.76667689771 1.26013393767 0.363766474972
1.76759333283 1.25939089117 0.363970826057
1.76882416404 1.25852761423 0.363296852227
1.7678042101 1.25923866867 0.363021975222
1.76918030563 1.25941779027 0.364914519369
1.76800348847 1.26012313135 0.364754947126
1.68819487398 1.25275147355 0.281480617147
1.76836904063 1.257960778 0.36106691181
1.76715383684 1.2572234628 0.361998030956
1.76901816711 1.25941969797 0.363878822305
1.76976007686 1.25871752369 0.363606549761
1.76287890493 1.25544323348 0.355273741839
1.68568099517 1.25143251493 0.290150819945
1.80368250096 1.24827500332 -0.385251675726
1.78835869027 1.25015804227 -0.376754277654
1.81207586324 1.25008976396 -0.395731826392
1.80504514379 1.25138259476 -0.391924060275
1.81481384938 1.25141552613 -0.399534576273
1.81209582846 1.25245926501 -0.39810691323
1.7673278217 1.26321462139 0.370005852986
1.76836421825 1.26161779153 0.367497351764
1.76840952686 1.26151457556 0.370058236131
1.76552039871 1.26575773982 0.375429686483
1.76868758366 1.26477861304 0.374076822295
1.76913231522 1.26286333913 0.374168891422
1.76691327994 1.26437941133 0.375834345973
1.80664067691 1.24882375677 -0.389012510205
1.80771460519 1.24908718581 -0.391550824358
1.80674027591 1.24857915631 -0.391833622115
1.81074677637 1.24887593827 -0.390661914911
1.81095365488 1.25099215937 -0.391645156721
1.81012009761 1.24901825746 -0.390084436925
1.81038943372 1.25082101118 -0.390893636965
1.81018373349 1.24910978985 -0.389884982506
1.81015542046 1.25057034733 -0.390495139141
1.81295983724 1.25073535139 -0.395366990262
1.81341011774 1.25254342621 -0.395993977718
1.81472573747 1.2533239076 -0.399757832956
1.81510707632 1.25212124594 -0.399966977719
1.81477804461 1.25241725538 -0.398942198605
1.81520966966 1.25361507311 -0.399185261445
1.63510731896 1.31455483185 0.186081791944
1.70277320152 1.29789152235 0.226009075351
1.80703189678 1.24210477738 0.353703356345
1.80715127839 1.24016592335 0.350553473853
1.80794066311 1.24248068612 0.352123039642
1.80717271048 1.2411597911 0.350535428822
1.80567381898 1.23987065892 0.349573033232
1.80608623095 1.23954925044 0.349377604433
1.80478243693 1.23811243222 0.348524226565
1.8055314392 1.23721424086 0.348379355495
1.8042949661 1.23604265821 0.348017859883
1.82192657105 1.23978284183 0.360597631604
1.83899785505 1.23873765257 0.373886183287
1.80945380864 1.24078839428 0.354303110958
1.81367988832 1.24411978918 0.361582694854
1.83072683307 1.23968762246 0.377045271462
1.81286712366 1.24366660181 0.358590110184
1.80596745599 1.24736130375 0.35881808908
1.80791741778 1.24703611201 0.357311799867
1.81037079269 1.24912934575 -0.390094666795
1.81024812486 1.2502401864 -0.390548672376
1.83031181158 1.25193497614 0.381167377054
1.78833685618 1.29965173335 0.389836442182
1.81641157888 1.26891382392 0.37187275081
1.80739451245 1.25093452011 -0.395385197587
1.80676390559 1.24848215354 -0.395995615444
1.58420494659 1.25299444141 -0.179119891868
1.70978678804 1.26393308486 -0.218620709522
1.69658154363 1.25932981501 -0.3049403883
1.8041014049 1.2496908207 -0.397571508743
1.76275822058 1.24766490048 -0.358525699303
1.79459855127 1.25046870988 -0.394139426968
1.73181403716 1.25438028695 -0.336973188359
1.80416020073 1.25297666325 -0.396805204354
1.78848621439 1.25704123155 -0.390549130308
1.72260032312 1.30691565087 0.258728144488
1.81093618589 1.24928448061 -0.390774813148
1.75017550249 1.2498527033 -0.327025901289
1.79434002215 1.24939130134 -0.376704373384
1.72131889578 1.24860369787 -0.311171163383
1.77137912245 1.25020629897 -0.363409437933
1.56879440905 1.2350991181 0.104333804767
1.56774427042 1.24438933968 -0.0478109139729
1.68939876035 1.23662522765 0.272103640937
1.74236031842 1.25118827426 0.302842840002
1.65016616613 1.2443330942 -0.0490372579783
1.69311132944 1.25785157852 0.114827326777
1.68630228821 1.25081842885 -0.0600639070302
1.71893340697 1.24908586488 -0.277911327366
1.66924757804 1.24908112029 -0.254164204544
1.77076319641 1.25150126266 -0.351273758375
1.71341749971 1.2558916846 0.305654035966
1.74172438112 1.25664108884 0.317985090652
1.77067130932 1.25731231335 0.359233557469
1.7493151718 1.25555724679 0.321335051207
1.76925356106 1.26034161697 0.367344552567
1.77051360423 1.25911563711 0.366290174993
1.76988780688 1.25980794697 0.365791767315
1.77140576613 1.26050500788 0.367365781599
1.77028880453 1.26098696333 0.367034930573
1.77191814451 1.25739469739 0.362808617182
1.76982238009 1.25908307545 0.36628231592
1.57508768909 1.24725827581 0.113968772945
1.57787143385 1.23833538046 0.127132698255
1.76211408703 1.25471634019 0.348925874783
1.76701789047 1.25942827399 0.36003781822
1.6858967861 1.25155775192 0.293539483485
1.58757043851 1.23407849749 0.150780465223
1.80742503105 1.25049797961 -0.391952055636
1.79684283299 1.2512502882 -0.385847335894
1.79990038894 1.25076125899 -0.386622833857
1.81338901893 1.25190185471 -0.398912958398
1.80876248846 1.25234222088 -0.396167520215
1.81481755736 1.25302542098 -0.400205302839
1.81383622926 1.25327977394 -0.400003396742
1.76956847236 1.26280024344 0.370906458877
1.76975192942 1.26224114874 0.370287019629
1.77006404906 1.2615206609 0.371399849845
1.76798041363 1.26609574333 0.377858991507
1.77131911357 1.26361106112 0.375088466463
1.77111360484 1.26161066284 0.374542130798
1.76824193001 1.26439876969 0.37782672989
1.81052814267 1.24981524105 -0.391062830318
1.81096937236 1.25008208187 -0.391779454279
1.81130501752 1.24884847355 -0.392085674558
1.81159961932 1.24817846518 -0.393324290471
1.81264135314 1.25088513281 -0.393981496814
1.81311637747 1.25237380845 -0.394679818189
1.81270306389 1.25086362912 -0.392944646559
1.81312343037 1.25203058689 -0.393388147878
1.81308706317 1.25060803077 -0.392214949804
1.81346271518 1.2515723066 -0.392482832474
1.81456518352 1.25248299373 -0.397425377574
1.81527770961 1.25359946651 -0.397740678583
1.81596211595 1.25402629168 -0.400652070131
1.81581557097 1.25340701678 -0.400938827373
1.8166714972 1.2543000292 -0.399634284359
1.81593938254 1.25387789072 -0.399424647199
1.71987048805 1.26606672192 -0.116883592712
1.58727346508 1.30573659991 0.0236401552411
1.74946448909 1.29166087393 0.183080983115
1.80489257496 1.24528454835 0.356193161776
1.80439404921 1.24401286832 0.354468984651
1.80620416523 1.24542611357 0.355635990589
1.80497744092 1.243922564 0.353745136112
1.80352120001 1.24239336218 0.352970819123
1.80414383568 1.24164666202 0.352476676837
1.80282962995 1.24018008565 0.351926605089
1.80356032489 1.23944221374 0.352007046665