# vtk DataFile Version 2.0
Unstructured Grid Example
ASCII
DATASET UNSTRUCTURED_GRID
POINTS 17773 double
0.0 0.552641 -0.002025
0.0 0.552641 0.0
0.00334435244261 0.552641 0.0
0.00337460188434 0.552641 -0.002025
0.00246240520633 0.550417197387 -0.002025
0.00242397655929 0.550466372258 0.0
0.0 0.549269784139 -0.002025
0.0 0.549269784139 0.0
0.00758462834993 0.552641 0.0
0.0076544207894 0.552641 -0.002025
0.0 0.544983443269 0.0
0.0 0.544983443269 -0.002025
0.00559627389327 0.549844329796 0.0
0.00563968870962 0.550022014328 -0.002025
0.00292151668933 0.547233850137 -0.002025
0.00288601599241 0.547326240413 0.0
0.0 0.540268363403 -0.002025
0.0 0.540268363403 0.0
0.0123450188921 0.552641 -0.002025
0.0122684469336 0.552641 0.0
0.00383020081638 0.54308507632 -0.002025
0.00996441344481 0.548773591126 -0.002025
0.00986538540686 0.548863234036 0.0
0.00382110121205 0.542638903767 0.0
0.00707604096378 0.545705565416 0.0
0.00714191399664 0.545310752684 -0.002025
0.00544411311188 0.544187275083 -0.00107061318492
0.0169892916383 0.552641 0.0
0.017069139553 0.552641 -0.002025
0.152 0.552641 0.0
0.152 0.552641 -0.002025
0.0217101483073 0.552641 0.0
0.0217932695733 0.552641 -0.002025
0.0264310049762 0.552641 0.0
0.0265173995936 0.552641 -0.002025
0.0 0.53552879181 -0.002025
0.0 0.53552879181 0.0
0.00410188811675 0.538296282087 -0.002025
0.0041104597249 0.537898577606 0.0
0.0145663954226 0.548278651831 -0.002025
0.014628869286 0.548536216561 0.0
0.00791694556994 0.540707477012 -0.002025
0.011982552655 0.543396376513 -0.002025
0.0119528582293 0.544642208235 0.0
0.00880145067137 0.540580831971 0.0
0.0193497199728 0.548536212935 0.0
0.0194312045631 0.548535220753 -0.002025
0.0 0.530789218858 -0.002025
0.0 0.530789218858 0.0
0.0 0.526049645905 -0.002025
0.0 0.526049645905 0.0
0.0311518616451 0.552641 0.0
0.0312415296139 0.552641 -0.002025
0.0358727183141 0.552641 0.0
0.0359656596343 0.552641 -0.002025
0.040593574983 0.552641 0.0
0.0406897896546 0.552641 -0.002025
0.0453144316519 0.552641 0.0
0.0454139196749 0.552641 -0.002025
0.0500352883209 0.552641 0.0
0.0501380496952 0.552641 -0.002025
0.148655647557 0.552641 0.0
0.148579185907 0.552641 -0.002025
0.149551483278 0.550197407183 0.0
0.149466931796 0.550036433408 -0.002025
0.152 0.549252154155 0.0
0.152 0.549251829683 -0.002025
0.144336732913 0.552641 -0.002025
0.14441537165 0.552641 0.0
0.0240705766417 0.548536212935 0.0
0.0241553345835 0.548535220753 -0.002025
0.0287914333107 0.548536212935 0.0
0.0288794646038 0.548535220753 -0.002025
0.00411046013718 0.533159005334 -0.002025
0.00410705938548 0.533141134398 0.0
0.0170547713826 0.544509442631 -0.002025
0.00814879907732 0.535740528988 -0.002025
0.00826722556745 0.535437676967 0.0
0.0169892914762 0.544431429496 0.0
0.0120747300683 0.538230876948 -0.002025
0.0154940321654 0.540545169104 -0.002025
0.0142219159999 0.540673657967 0.0
0.0120403699005 0.537039273033 0.0
0.0217101483073 0.54443142587 0.0
0.0217932695733 0.544429441506 -0.002025
0.00411046013718 0.528419432381 -0.002025
0.00411046013718 0.528419432381 0.0
0.0 0.521310072953 0.0
0.00411046013718 0.523679859429 -0.002025
0.0 0.521310072953 -0.002025
0.00411046013718 0.523679859429 0.0
0.0 0.5165705 0.0
0.0 0.5165705 -0.002025
0.0 0.511830927047 0.0
0.0 0.511830927047 -0.002025
0.0335122899796 0.548536212935 0.0
0.0336035946241 0.548535220753 -0.002025
0.0382331466485 0.548536212935 0.0
0.0383277246444 0.548535220753 -0.002025
0.0429540033175 0.548536212935 0.0
0.0430518546647 0.548535220753 -0.002025
0.0547561449898 0.552641 0.0
0.0548621797155 0.552641 -0.002025
0.0476748599864 0.548536212935 0.0
0.0477759846851 0.548535220753 -0.002025
0.0523957166553 0.548536212935 0.0
0.0525001147054 0.548535220753 -0.002025
0.146357178682 0.549891004544 0.0
0.146148624604 0.549779722776 -0.002025
0.14916099575 0.547236811334 0.0
0.149090740912 0.547076343085 -0.002025
0.152 0.544944150334 0.0
0.152 0.544943444403 -0.002025
0.139798133518 0.552641 -0.002025
0.141913035462 0.549371602036 -0.002025
0.135130633267 0.552641 -0.002025
0.139731553066 0.552641 0.0
0.142083461247 0.548938503892 0.0
0.0264310049762 0.54443142587 0.0
0.0265173995936 0.544429441506 -0.002025
0.0311518616451 0.54443142587 0.0
0.0312415296139 0.544429441506 -0.002025
0.00822092027436 0.530789218858 -0.002025
0.00823129975921 0.530728940542 0.0
0.0195026976624 0.540319976495 -0.002025
0.0122664623282 0.533427702858 -0.002025
0.0123900153396 0.53304955484 0.0
0.0193230922421 0.540273132076 0.0
0.0167219940152 0.535983347511 -0.002025
0.016585679876 0.535891464729 0.0
0.0240705766417 0.540326638804 0.0
0.0241553345835 0.540323662259 -0.002025
0.00822092027436 0.526049645905 -0.002025
0.00822092027436 0.526049645905 0.0
0.00411046013718 0.518940286476 0.0
0.00822092027436 0.521310072953 -0.002025
0.00411046013718 0.518940286476 -0.002025
0.00822092027436 0.521310072953 0.0
0.0 0.507091354095 -0.002025
0.0 0.507091354095 0.0
0.0 0.502351781142 -0.002025
0.0 0.502351781142 0.0
0.00411046013718 0.514200713524 0.0
0.00411046013718 0.514200713524 -0.0010125
0.00411046013718 0.514200713524 -0.002025
0.00411046013718 0.509461140571 0.0
0.00411046013718 0.509461140571 -0.002025
0.00822092027436 0.5165705 -0.002025
0.0358727183141 0.54443142587 0.0
0.0359656596343 0.544429441506 -0.002025
0.040593574983 0.54443142587 0.0
0.0406897896546 0.544429441506 -0.002025
0.0453144316519 0.54443142587 0.0
0.0454139196749 0.544429441506 -0.002025
0.0 0.488157556731 0.0
0.0 0.483871215861 0.0
0.0 0.4805 0.0
0.0 0.483871215861 -0.002025
0.0 0.4805 -0.002025
0.0594770016587 0.552641 0.0
0.0595863097359 0.552641 -0.002025
0.0641978583277 0.552641 0.0
0.0643104397562 0.552641 -0.002025
0.0689187149966 0.552641 0.0
0.0690345697765 0.552641 -0.002025
0.0571165733243 0.548536212935 0.0
0.0572242447257 0.548535220753 -0.002025
0.0500352883209 0.54443142587 0.0
0.0501380496952 0.544429441506 -0.002025
0.0547561449898 0.54443142587 0.0
0.0548621797155 0.544429441506 -0.002025
0.144686201113 0.545533485902 0.0
0.144009766127 0.545025866879 -0.002025
0.14797771068 0.542636862962 0.0
0.147902213018 0.542585716724 -0.002025
0.152 0.540228688041 0.0
0.152 0.540227989044 -0.002025
0.135010708362 0.552641 0.0
0.13042043962 0.552641 -0.002025
0.12571021981 0.552641 -0.002025
0.137577575001 0.548891152172 -0.002025
0.139854894013 0.546201521641 -0.002025
0.130289851693 0.552641 0.0
0.132992379009 0.548884580307 -0.002025
0.137371130714 0.548536216561 0.0
0.13995035789 0.544702514918 0.0
0.0736395716655 0.552641 0.0
0.0737586997968 0.552641 -0.002025
0.125568995024 0.552641 0.0
0.121 0.552641 -0.002025
0.120848138355 0.552641 0.0
0.0783604283345 0.552641 0.0
0.0287914333107 0.540326638804 0.0
0.0288794646038 0.540323662259 -0.002025
0.0335122899796 0.540326638804 0.0
0.0336035946241 0.540323662259 -0.002025
0.0123313804115 0.528419432381 -0.002025
0.0123313804115 0.528419432381 0.0
0.0217986914832 0.536696682682 -0.002025
0.0163754882953 0.530654498573 -0.002025
0.0163597739958 0.530633202805 0.0
0.0216779952827 0.536541395979 0.0
0.0200521521602 0.532976625685 -0.002025
0.0199834289429 0.532722259717 0.0
0.0264310049762 0.536221851739 0.0
0.0265271543348 0.536279542554 -0.002025
0.0123313804115 0.523679859429 -0.002025
0.0123313804115 0.518940286476 -0.002025
0.0123313804115 0.523679859429 0.0
0.00822092027436 0.5165705 0.0
0.0123313804115 0.518940286476 0.0
0.0 0.488157556731 -0.002025
0.0 0.49761220819 0.0
0.0 0.492872636597 0.0
0.0021690425596 0.494656742706 -0.0010125
0.0 0.49761220819 -0.002025
0.0 0.492872636597 -0.002025
0.00411046013718 0.504721567619 -0.002025
0.00411046013718 0.504721567619 0.0
0.00411046013718 0.499981994666 -0.002025
0.00397890165359 0.499670190075 -0.0010125
0.00411046013718 0.499981994666 0.0
0.00822092027436 0.511830927047 0.0
0.00822092027436 0.511830927047 -0.002025
0.00822092027436 0.507091354095 0.0
0.00822092027436 0.507091354095 -0.002025
0.0123313804115 0.514200713524 -0.002025
0.0382331466485 0.540326638804 0.0
0.0383277246444 0.540323662259 -0.002025
0.0429540033175 0.540326638804 0.0
0.0430518546647 0.540323662259 -0.002025
0.0476748599864 0.540326638804 0.0
0.0477759846851 0.540323662259 -0.002025
0.00358330541074 0.490448959055 0.0
0.00299920374473 0.48645311717 0.0
0.0029773344929 0.486348130032 -0.002025
0.00301590676507 0.483020337691 0.0
0.00293640644896 0.4805 0.0
0.00574447624759 0.484503205838 0.0
0.00570822739252 0.484327754113 -0.0010125
0.00301993190233 0.483029043936 -0.002025
0.00293640644896 0.4805 -0.002025
0.00574149095343 0.484468867962 -0.002025
0.0784828298171 0.552641 -0.002025
0.0830812850034 0.552641 0.0
0.0832069598375 0.552641 -0.002025
0.0618374299932 0.548536212935 0.0
0.061948374746 0.548535220753 -0.002025
0.0665582866621 0.548536212935 0.0
0.0666725047663 0.548535220753 -0.002025
0.0712791433311 0.548536212935 0.0
0.0713966347867 0.548535220753 -0.002025
0.0594770016587 0.54443142587 0.0
0.0595863097359 0.544429441506 -0.002025
0.0525001147054 0.540323662259 -0.002025
0.0523957166553 0.540326638804 0.0
0.0571165733243 0.540326638804 0.0
0.0572242447257 0.540323662259 -0.002025
0.116127281686 0.552641 0.0
0.11627586998 0.552641 -0.002025
0.13997943118 0.542410794759 -0.002025
0.143004611966 0.540845035525 0.0
0.143789302877 0.540232959616 -0.002025
0.147889760174 0.537859264983 0.0
0.147889762033 0.537858569053 -0.002025
0.152 0.535489841926 0.0
0.152 0.535489149063 -0.002025
0.132650280027 0.548536212935 0.0
0.12829145956 0.549375057765 -0.002025
0.12433657695 0.549805082922 -0.002025
0.135865199825 0.544541948029 -0.002025
0.130707489486 0.545346906745 -0.002025
0.127929423358 0.548536212935 0.0
0.135088022694 0.544495923106 0.0
0.136816310796 0.5406025022 -0.002025
0.137651096199 0.540476427018 0.0
0.076 0.548536212935 0.0
0.076120764807 0.548535220753 -0.002025
0.123208566689 0.548536212935 0.0
0.117839032065 0.549064601646 -0.002025
0.121 0.54791757265 -0.002025
0.0878021416723 0.552641 0.0
0.0879310898578 0.552641 -0.002025
0.111406425017 0.552641 0.0
0.111551739959 0.552641 -0.002025
[...]
POINT_DATA 17773
VECTORS FID_FibreOrientation double
1.45921611128 -0.281617101618 0.792478469745
1.45891642093 -0.281116088174 0.792512406584
1.46009359463 -0.281886793356 0.793035579366
1.46082266477 -0.282298465085 0.79367731033
1.46046433368 -0.281230010441 0.793575557788
1.45981614439 -0.280872926245 0.793292334516
1.45955438965 -0.280919714195 0.79268636034
1.45909861725 -0.280449896323 0.792910835307
1.46326307266 -0.282842585477 0.795033534543
1.46458009319 -0.282798654254 0.795977071663
1.45936886732 -0.278567913015 0.793737695626
1.45956752002 -0.278826299557 0.793481426962
1.46182266632 -0.281007874337 0.794827659116
1.46295654521 -0.281556302548 0.795367576652
1.4611585601 -0.279810476219 0.794338824615
1.46035954209 -0.279498978814 0.794124166446
1.46014939596 -0.276555363595 0.794507626121
1.45957076403 -0.276243603471 0.794481269003
1.47548821287 -0.286870027105 0.800667290405
1.46749399504 -0.281224678249 0.797733599493
1.4619084395 -0.27795003422 0.795503146545
1.4669374739 -0.282407184456 0.798912459407
1.46543217602 -0.280957724877 0.797518255378
1.46111677047 -0.277332295067 0.795178490996
1.46339622584 -0.278854474952 0.79652512224
1.46473232673 -0.279040522561 0.797198283939
1.46265578643 -0.278213445514 0.796111805823
1.4633233373 -0.273376603315 0.810205426485
1.42525869045 -0.258949267257 0.777005390735
1.46757812348 -0.296341678753 0.792820482589
1.46727325189 -0.296104936764 0.793001314229
1.32046339054 -0.241635476771 0.616138367566
1.1871023742 -0.217719236169 0.551538208413
1.1583294921 -0.298975318964 0.139551652647
0.955490514827 -0.290721591857 0.121995042372
1.46036908474 -0.274757908532 0.795144342345
1.45981632977 -0.274510991826 0.795060777299
1.46185104364 -0.276012430141 0.796220536226
1.46141331753 -0.275627522061 0.795970145862
1.4587795831 -0.284595087803 0.787286050243
1.46199958627 -0.280396531982 0.798347007479
1.46464771617 -0.276741966171 0.797974053301
1.46629068627 -0.277168811261 0.798870357889
1.4646421956 -0.276986939187 0.800955110319
1.46438555195 -0.276357179543 0.797878906756
1.39030473992 -0.27790685824 0.730352592098
1.32765686126 -0.281159612336 0.66840259617
1.460542385 -0.273054311262 0.795679028779
1.45995872515 -0.272817500369 0.795568918301
1.46063576032 -0.271480355135 0.796099195146
1.46000550207 -0.271253975511 0.796001484493
1.1557625009 -0.343411696763 -0.251960117396
1.04916998544 -0.322713814646 -0.238032937255
1.20118144839 -0.334588620098 -0.444862367784
1.15093233486 -0.330032682888 -0.434145613285
1.23001395984 -0.314869353352 -0.53037080533
1.20834675 -0.316186100687 -0.525626941787
1.23908014761 -0.296302124983 -0.561566512041
1.22964960226 -0.301635305487 -0.559787157438
1.23743538617 -0.289230604513 -0.564990795648
1.23457714327 -0.291930699838 -0.565540661539
1.46923203104 -0.298182171655 0.79379760942
1.46893825747 -0.297647852958 0.793969917004
1.46899147967 -0.299082172105 0.792052815698
1.46858068677 -0.299051135898 0.792410891701
1.46727112435 -0.299578443153 0.791270447933
1.46697008025 -0.299506133641 0.791681401796
1.47035845995 -0.300867486131 0.794002394104
1.47174582617 -0.301242192853 0.793301848263
1.22423600032 -0.29296154459 0.353222550775
0.979090119196 -0.302047696608 0.294161734541
1.14271008495 -0.311983395831 -0.150555193687
0.991932293534 -0.307414237815 -0.135257849413
1.46211379801 -0.274269825301 0.796974875847
1.46163620355 -0.273997211259 0.796626042919
1.40824229288 -0.278845348411 0.755084023265
1.46485880609 -0.275503515092 0.798929897287
1.46430624953 -0.275386707088 0.798447269581
1.47030691973 -0.27803300529 0.799150662684
1.46575025082 -0.275366155392 0.798247894072
1.43971354461 -0.278698436059 0.786848793186
1.46665801139 -0.276974100327 0.799982672639
1.46627729794 -0.275548787751 0.79978956249
1.31419645242 -0.290531518253 0.625132804314
1.14277834434 -0.296612727057 0.528605270055
1.46225824317 -0.272740651058 0.797504522261
1.4617808288 -0.27249925391 0.79713843476
1.46001002806 -0.269480126647 0.796512572253
1.46245054552 -0.271087001637 0.798056496031
1.46070666321 -0.269742546258 0.796599982119
1.46176570634 -0.270769570184 0.797756925404
1.4602296598 -0.268004846122 0.797171806423
1.46090211272 -0.268168921793 0.797147484998
1.4602261382 -0.266456333779 0.797710511646
1.46045181764 -0.266720116176 0.797583847798
1.17120344954 -0.316687679837 -0.387146038308
1.1028604472 -0.306571697706 -0.368351944806
1.20919701579 -0.308567444792 -0.495462736806
1.17727886158 -0.304212368259 -0.48575711532
1.23119636355 -0.297010205436 -0.546336152437
1.21461587514 -0.298805895822 -0.541656340231
1.23476044282 -0.286116531284 -0.564567725391
1.2343318224 -0.286943731964 -0.565411958654
1.23634294029 -0.289898932874 -0.560391897116
1.2298706056 -0.290897641471 -0.56013807056
1.23583901073 -0.28604821414 -0.564288914766
1.23394959324 -0.286285045523 -0.565231074295
1.47056745359 -0.301056941325 0.792137187773
1.47036408471 -0.301025473664 0.792230496682
1.46859761437 -0.301678892469 0.790707815661
1.4682684705 -0.301035714855 0.790959405489
1.46700878705 -0.303851637671 0.788961827419
1.46681142746 -0.303449707524 0.789451831656
1.47144991454 -0.304807062153 0.792567814475
1.47129257387 -0.303943913556 0.792081111744
1.47245317924 -0.310231716351 0.791122394024
1.47257322658 -0.304957740161 0.791519425872
1.47151626409 -0.304712911356 0.791212599118
1.15656810977 -0.300896412501 0.0488696916883
0.946292147171 -0.314770116826 0.0193507850227
1.15482830641 -0.301025509886 -0.305709607763
1.05016879167 -0.298548860702 -0.281158378183
1.46552085639 -0.273521981466 0.799929088258
1.46429025739 -0.273434831253 0.799184363054
1.34056117645 -0.281299885851 0.682912252649
1.46693761496 -0.27445500944 0.799685551793
1.46686038095 -0.274992986597 0.80211323646
1.42220374189 -0.28102659217 0.763082853939
1.43311948415 -0.27158775673 0.77175558552
1.4591199037 -0.275555257494 0.798884572636
1.23561859274 -0.289554110243 0.409769517674
0.986401582254 -0.298821184097 0.343560036553
1.4650382536 -0.272236633344 0.800222450589
1.46429905589 -0.271848450631 0.799630504479
1.46181702266 -0.268832951154 0.798224828575
1.46631465321 -0.270299395288 0.801030857141
1.46275095157 -0.269088441878 0.798728250325
1.46469203861 -0.269735646135 0.800587858978
1.46053542153 -0.265287494044 0.798090716208
1.45964554672 -0.265181433517 0.798021690093
1.46003035451 -0.263867335652 0.798279537498
1.4590699593 -0.26385446197 0.798274430291
1.46170355578 -0.267004412294 0.798765223062
1.46236539737 -0.266977073772 0.798978134193
1.46261781529 -0.267155407707 0.799193088959
1.46158962574 -0.265236252948 0.799125553051
1.4624175029 -0.26539033798 0.799614164392
1.46583634533 -0.267781176815 0.801658968422
1.19127415861 -0.298551508549 -0.461712353821
1.14647281569 -0.295692218677 -0.444407535114
1.22151385019 -0.292898082377 -0.53048463635
1.19675323569 -0.292876483833 -0.520209665036
1.23396908672 -0.287954158183 -0.555423974536
1.22242155598 -0.287677063931 -0.552536255254
1.4561107919 -0.256731727874 0.799260291643
1.45491951603 -0.252628415667 0.799803051259
1.45489575966 -0.25086660478 0.800063250169
1.45567994498 -0.253086847605 0.799364412051
1.45578829541 -0.25094986041 0.799967073467
1.23312907305 -0.284029195413 -0.563438243739
1.23330519598 -0.284053135435 -0.564140321716
1.23245135747 -0.282578689052 -0.562632224495
1.23262969464 -0.282218083704 -0.563119713852
1.23268977944 -0.281381542546 -0.562582493442
1.23265462876 -0.280889036194 -0.562864676002
1.23462535197 -0.284122971519 -0.564234358581
1.23489097771 -0.283831722408 -0.565024237497
1.23633054178 -0.284156474692 -0.564174939521
1.23233499158 -0.283627004629 -0.564099183946
1.23628243259 -0.281952646224 -0.566261670064
1.23519638376 -0.281021303913 -0.567142840835
1.46970492194 -0.303077321854 0.791458242046
1.46930231913 -0.303550044614 0.790717378788
1.46820515652 -0.302439816924 0.79072373226
1.46795875735 -0.302302063347 0.79013480145
1.46800513229 -0.304437244249 0.789183874781
1.46741502314 -0.304346854021 0.789012950569
1.47472439959 -0.309882513549 0.790990372674
1.48244491372 -0.313184538186 0.795672536513
1.53068783464 -0.301120239909 0.827273714319
1.47283998693 -0.308363049382 0.791838470832
1.47115522974 -0.305918702175 0.791501992588
1.48813303234 -0.309054833128 0.79969197921
1.47700713503 -0.312886614147 0.794666209601
1.47387220847 -0.309116376812 0.792572212638
1.47052634009 -0.304883977746 0.792893259997
1.23373698837 -0.280161514653 -0.563405446693
1.23343403501 -0.27972234649 -0.563506175151
1.56914625427 -0.305837992209 0.861698537832
1.77713812301 -0.0793204938778 0.959898266204
1.6448737304 -0.25157739317 0.942525315727
1.23545961918 -0.278678712957 -0.565102889247
1.13580154077 -0.296837628167 -0.168844674263
0.996975127988 -0.303128886175 -0.166515409575
1.17346755863 -0.29355329182 -0.405550457383
1.1043306545 -0.29388538455 -0.381367973889
1.46811703263 -0.27395802735 0.801898978133
1.46465335338 -0.273391033937 0.802205004068
1.16600075957 -0.289109396439 0.541292231425
1.44816467257 -0.273967120042 0.786430388387
1.45172883602 -0.271283260653 0.808264684869
1.33097224367 -0.279003818333 0.649682333589
1.30162609008 -0.278532830137 0.682874626702
1.38204403088 -0.277611868131 0.747396060726
1.1610110112 -0.291717803776 0.0903770068181
0.939498566301 -0.30286962199 0.0585049167991
1.46677002961 -0.271627027779 0.801496454787
1.46631558081 -0.268883451106 0.80284827299
1.46430716866 -0.270768728022 0.803576539356
1.46503239365 -0.267543095576 0.801241151927
1.46877338917 -0.267908316736 0.802342536414
1.45684526985 -0.256866037713 0.798663283171
1.45835515384 -0.262401465393 0.798480580015
1.45742666197 -0.260132609436 0.798836877348
1.45908389802 -0.260614432807 0.799319215295
1.45923964658 -0.26239057543 0.798334788167
1.4581401712 -0.260238475796 0.798454843657
1.46194744557 -0.263780617018 0.799760708568
1.46114197141 -0.263723065876 0.799493210371
1.46137306209 -0.262122255334 0.800034465828
1.46090739227 -0.262093531894 0.799786569688
1.46050369771 -0.262158161232 0.799663550859
1.46418082582 -0.265639670074 0.80126973079
1.4656716739 -0.265869692073 0.801583249792
1.46388863586 -0.26384365682 0.801565293211
1.4652238412 -0.263897081634 0.80201769914
1.46817597385 -0.265294625841 0.801240519665
1.21107965492 -0.288943347005 -0.508131417144
1.17483769247 -0.28967944609 -0.490630932678
1.22994735531 -0.285582452138 -0.546626846578
1.21193174291 -0.285349893743 -0.539745083755
1.23611829215 -0.282098318271 -0.562812129033
1.22878160561 -0.281744931695 -0.560387455457
1.45843493292 -0.257827898722 0.800089484922
1.45717383682 -0.254677947984 0.800570778728
1.45849473433 -0.254757896268 0.800525466691
1.45666637092 -0.251736214029 0.801054622644
1.4560211624 -0.250719144293 0.800799686783
1.4593732696 -0.252467420375 0.802550781927
1.46015905845 -0.252557279786 0.802689567406
1.45773641709 -0.252075650013 0.801333817192
1.4577009151 -0.250339118058 0.801649873429
1.46075179767 -0.252765095463 0.80294020032
1.23490706255 -0.278459501517 -0.565041695899
1.23767099803 -0.276598172472 -0.567636755365
1.2369392457 -0.276819932455 -0.567436919628
1.23419492599 -0.282385557011 -0.563928890423
1.2345041723 -0.281763835647 -0.56450605842
1.23421436791 -0.280708432924 -0.563438691978
1.23440844401 -0.280229112341 -0.564084083758
1.23505374969 -0.279553205961 -0.563988255461
1.23485775956 -0.278931962189 -0.564163093512
1.23581473515 -0.28042471902 -0.565935530502
1.23578266499 -0.279347512856 -0.567086038546
1.23540098026 -0.278956808894 -0.567612869468
1.23710711414 -0.280004364324 -0.568329959106
1.23708376059 -0.278246883156 -0.568142464209
1.23693389601 -0.277402698505 -0.569161013592
1.32593734203 -0.214733525275 0.726443232206
1.35998673111 -0.431935417691 0.724598162678
1.46975018908 -0.303670730836 0.792374779925
1.46954849946 -0.301201663384 0.793396506066
1.46835378906 -0.301611437905 0.79143638722
1.4684024985 -0.300172050862 0.791726678884
1.46782924036 -0.301070680755 0.790752337643
1.469164065 -0.302020946237 0.79079054357
1.46844805706 -0.302403345909 0.790209675155
1.48042825295 -0.312181838224 0.79806750822
1.49695345962 -0.311591094776 0.808234823326
1.56002674292 -0.326949669605 0.851469141172
1.47244058236 -0.307393921342 0.793641295241
1.483583309 -0.309356513298 0.802590626195
1.5117658465 -0.297735551119 0.831476438584
1.47681075572 -0.306700250393 0.798623676124
1.47056499129 -0.301927837313 0.794604164751
1.47305924998 -0.300823213946 0.797812078131
1.23616264533 -0.277946453188 -0.56458952336
1.23587240093 -0.277679303552 -0.564818080968
1.55742209076 -0.316949666089 0.867824132699
1.46026807639 -0.183709179502 0.848166525059
1.59002877334 -0.210442054665 0.901156446028
1.23987647636 -0.272514503506 -0.571538634131
1.24000454831 -0.274749266362 -0.571244908922
0.934022811656 -0.210326696205 0.223949915322
1.24306884381 -0.238621329689 0.305138341728
1.16877256425 -0.228449347159 -0.342636550154
1.22394578374 -0.240559470806 -0.526032369215
1.02828977007 -0.239151293956 -0.314639978023
1.24028491912 -0.266672639585 -0.572576427027
1.24220202949 -0.269171926169 -0.572711366283
1.18593461425 -0.239653883301 -0.520512821584
1.2313175919 -0.255379719992 -0.565863193748
1.23957853544 -0.260124060832 -0.568338364463
1.42364858964 -0.228372228736 0.735107058699
1.2380706268 -0.276199493775 -0.566068474239
1.14520198722 -0.291333216397 -0.307301222525
1.19961861648 -0.287963458096 -0.472152949469
1.056161102 -0.297025479094 -0.293089005107
1.14256876754 -0.28970511291 -0.446086208365
1.44484083778 -0.275538789791 0.777651595119
1.46259380465 -0.27359141366 0.807757471136
1.00006187485 -0.298387136279 0.382548409503
1.23853604105 -0.282553250534 0.616033086873
1.37485804254 -0.281369983762 0.695230273936
1.24505241721 -0.283818518502 0.451218719845
1.13474698611 -0.290228940881 -0.144249510095
0.982463876829 -0.298948390656 -0.143256255513
1.45564050084 -0.269180958296 0.792716461007
1.44955718591 -0.269975964165 0.788523139869
1.46057553599 -0.272273928348 0.806602845444
1.46710883013 -0.266319287703 0.803480915341
1.46754155943 -0.268875622857 0.803752025586
1.45971270628 -0.257787851289 0.800355302202
1.45968223881 -0.260339517537 0.799838945414
1.46068702455 -0.260325954684 0.800317867715
1.46457063531 -0.262212188569 0.802377307389
1.46335615297 -0.26215872569 0.801675861548
1.46424152322 -0.260644906003 0.802553648901
1.46279132832 -0.260433115756 0.801893307882
1.30808108759 -0.275634889892 0.680409495062
1.4669787556 -0.263824390692 0.8031079466
1.46545031297 -0.264919051548 0.80368735162
1.46619217365 -0.262600634009 0.803838678985
1.46718690837 -0.262557337127 0.803838511266
1.45834766451 -0.267047704952 0.795965136378
1.30416069736 -0.280001993977 0.683372644359
1.2231884191 -0.284944400411 -0.532497391863
1.19570993405 -0.285261346609 -0.52003182588
1.23388803444 -0.281613599866 -0.558234783636
1.22169890197 -0.281636433645 -0.552474231972
1.23782553427 -0.279064445616 -0.567928188341
1.23302848582 -0.278767767375 -0.565712159214
1.46077974091 -0.254885665019 0.802679997421
1.4628899095 -0.257892966484 0.802848630897
1.46231746724 -0.255465263976 0.802943439048
1.45926124342 -0.249368072977 0.80350423768
1.4635154736 -0.251938270665 0.805220606045
1.46455623873 -0.252551150025 0.805455170621
1.46147525142 -0.24967580625 0.80447066959
1.23734127414 -0.276318011061 -0.565933774814
1.23940111994 -0.273713174037 -0.567736845324
1.23930800374 -0.274733546295 -0.567649349123
1.23576639319 -0.279205293866 -0.565340230542
1.23587082551 -0.278073445662 -0.566423976837
1.23603349152 -0.277942606197 -0.565114723711
1.23614401227 -0.276966038626 -0.565955292241
1.23702377865 -0.276669326688 -0.565347334033
1.23681360234 -0.275913995877 -0.565903812534
1.23713395023 -0.277318402974 -0.56804089358
1.23731130127 -0.276208417382 -0.56878436484
1.23742148065 -0.276467112162 -0.570151512059
1.23862672137 -0.277347314552 -0.570576280923
1.23849560679 -0.276137592158 -0.570575817737
1.23845817155 -0.275091386516 -0.570816071149
1.1980113724 -0.149947913589 0.578055903048
1.33805471633 -0.193813738528 0.628253327884
1.4717932908 -0.298301777824 0.797943060007
1.46983617043 -0.298869583086 0.794854362639
1.47088045485 -0.297166593489 0.797679862341
1.46971939162 -0.297094045857 0.795286709464
1.46818015708 -0.297591005289 0.793311150379
1.46910565926 -0.29718734164 0.793665804255
1.46832935348 -0.298298186148 0.792377820532
1.47044614527 -0.298328336992 0.793085612981
1.46970837555 -0.298920251574 0.792236746068
1.49487380751 -0.305351416405 0.81549765212
1.53112847863 -0.316844041618 0.833101541556
1.47716166397 -0.302093151534 0.800582486324
1.4907932896 -0.303097874167 0.811875684621
1.52610288317 -0.316316294872 0.843492102437
1.48227524042 -0.300483533556 0.808467053835
1.47646247687 -0.294877510691 0.803737543249
1.47493307787 -0.294043246622 0.803510637741
1.23806842583 -0.275436735542 -0.565874657751
1.23786837894 -0.27486524026 -0.566212101176
1.49478031664 -0.287114275456 0.837301821171
1.42980200277 -0.240133731109 0.913746556153
1.51108987733 -0.28586338102 0.844547651262
1.23956225067 -0.270130373945 -0.568524802489
1.24096620956 -0.272362832752 -0.568869494483
0.931245013055 -0.282065253735 -0.133204653566
1.17572849173 -0.242582447392 -0.159659686674
1.108054967 -0.261108013591 -0.348044364852
1.23958961485 -0.267522839566 -0.56236918519
1.19681484147 -0.259317465826 -0.452049046876
1.23153151287 -0.260391177506 -0.539705790013
1.13257417256 -0.264608148015 -0.433377334152
1.23494849335 -0.266919733756 -0.562087870631
1.21371864482 -0.262906139902 -0.537842373851
1.30032434873 -0.196308100007 0.678478440125
1.23935791691 -0.274010691201 -0.566495482947
1.16837037582 -0.286218974872 -0.396841122797
1.2123029812 -0.28556768051 -0.508709773821
1.09899902937 -0.292032565247 -0.376654359387
1.17197356372 -0.286095208806 -0.489503532948
1.02109764327 -0.307593117748 0.401416483192
0.955189808289 -0.295005055128 0.111555830391
1.31061790403 -0.295218381439 0.659572343136
1.38171148512 -0.273319774914 0.737209393797
1.07715713295 -0.291655588951 0.114156636658
1.2521666932 -0.271295659599 0.454587998447
1.17137524104 -0.287497553759 0.130034186889
1.14452449913 -0.288963400085 -0.288109830811
1.03257022303 -0.29480478795 -0.264364783844
1.18704831891 -0.284064122523 -0.455983608817
1.36636354792 -0.269310776203 0.711595236101
1.3944141118 -0.270548291176 0.755625421683
1.46825768654 -0.263815705425 0.805987033611
1.41631824475 -0.271006634315 0.750795385698
1.46413621993 -0.25858290751 0.803202277823
1.46730331907 -0.261159944849 0.805098929221
1.46627116249 -0.261409662077 0.804669665587
1.46782058969 -0.259454470866 0.805474950729
1.4668015577 -0.259788897659 0.804811956927
1.46841266361 -0.266711878795 0.802986959712
1.46840153978 -0.263014785805 0.8045395057
1.0150255518 -0.28976930935 0.414883887932
1.03322333558 -0.298528800165 0.410759192575
1.45544052409 -0.268006850364 0.787723933546
1.46310634621 -0.261353380382 0.798334507768
1.30889369644 -0.277909152285 0.691120028943
1.07500220546 -0.30036721099 0.457491012368
1.22882275446 -0.282104930173 -0.547401269831
1.2100635666 -0.282650223704 -0.538387220697
1.22033027333 -0.283292381394 -0.531785067976
1.23630625194 -0.279478999297 -0.564507869642
1.22815428788 -0.279610907982 -0.56034657585
1.23797383937 -0.277328336366 -0.569813856529
1.23580752142 -0.277211425156 -0.569033474071
1.46493882703 -0.255650376485 0.805095948704
1.46561063373 -0.257232552717 0.806225515747
1.46579421975 -0.255927203403 0.805609406109
1.46506250258 -0.249086226093 0.807379835046
1.46816176798 -0.253394862411 0.808280730453
1.46820610535 -0.254256840101 0.807287947279
1.46540804488 -0.249858453246 0.807525827183
1.23912603517 -0.273784660335 -0.566588578283
1.23968388509 -0.27207547297 -0.566573624366
1.24094049178 -0.272763163856 -0.566568714031
1.24197600878 -0.271257801712 -0.565212554965
1.23725478107 -0.276156074136 -0.567251826743
1.23746491357 -0.275250052634 -0.568048118302