# vtk DataFile Version 2.0
Unstructured Grid Example
ASCII
DATASET UNSTRUCTURED_GRID
POINTS 17773 double
0.0 0.552641 -0.002025
0.0 0.552641 0.0
0.00334435244261 0.552641 0.0
0.00337460188434 0.552641 -0.002025
0.00246240520633 0.550417197387 -0.002025
0.00242397655929 0.550466372258 0.0
0.0 0.549269784139 -0.002025
0.0 0.549269784139 0.0
0.00758462834993 0.552641 0.0
0.0076544207894 0.552641 -0.002025
0.0 0.544983443269 0.0
0.0 0.544983443269 -0.002025
0.00559627389327 0.549844329796 0.0
0.00563968870962 0.550022014328 -0.002025
0.00292151668933 0.547233850137 -0.002025
0.00288601599241 0.547326240413 0.0
0.0 0.540268363403 -0.002025
0.0 0.540268363403 0.0
0.0123450188921 0.552641 -0.002025
0.0122684469336 0.552641 0.0
0.00383020081638 0.54308507632 -0.002025
0.00996441344481 0.548773591126 -0.002025
0.00986538540686 0.548863234036 0.0
0.00382110121205 0.542638903767 0.0
0.00707604096378 0.545705565416 0.0
0.00714191399664 0.545310752684 -0.002025
0.00544411311188 0.544187275083 -0.00107061318492
0.0169892916383 0.552641 0.0
0.017069139553 0.552641 -0.002025
0.152 0.552641 0.0
0.152 0.552641 -0.002025
0.0217101483073 0.552641 0.0
0.0217932695733 0.552641 -0.002025
0.0264310049762 0.552641 0.0
0.0265173995936 0.552641 -0.002025
0.0 0.53552879181 -0.002025
0.0 0.53552879181 0.0
0.00410188811675 0.538296282087 -0.002025
0.0041104597249 0.537898577606 0.0
0.0145663954226 0.548278651831 -0.002025
0.014628869286 0.548536216561 0.0
0.00791694556994 0.540707477012 -0.002025
0.011982552655 0.543396376513 -0.002025
0.0119528582293 0.544642208235 0.0
0.00880145067137 0.540580831971 0.0
0.0193497199728 0.548536212935 0.0
0.0194312045631 0.548535220753 -0.002025
0.0 0.530789218858 -0.002025
0.0 0.530789218858 0.0
0.0 0.526049645905 -0.002025
0.0 0.526049645905 0.0
0.0311518616451 0.552641 0.0
0.0312415296139 0.552641 -0.002025
0.0358727183141 0.552641 0.0
0.0359656596343 0.552641 -0.002025
0.040593574983 0.552641 0.0
0.0406897896546 0.552641 -0.002025
0.0453144316519 0.552641 0.0
0.0454139196749 0.552641 -0.002025
0.0500352883209 0.552641 0.0
0.0501380496952 0.552641 -0.002025
0.148655647557 0.552641 0.0
0.148579185907 0.552641 -0.002025
0.149551483278 0.550197407183 0.0
0.149466931796 0.550036433408 -0.002025
0.152 0.549252154155 0.0
0.152 0.549251829683 -0.002025
0.144336732913 0.552641 -0.002025
0.14441537165 0.552641 0.0
0.0240705766417 0.548536212935 0.0
0.0241553345835 0.548535220753 -0.002025
0.0287914333107 0.548536212935 0.0
0.0288794646038 0.548535220753 -0.002025
0.00411046013718 0.533159005334 -0.002025
0.00410705938548 0.533141134398 0.0
0.0170547713826 0.544509442631 -0.002025
0.00814879907732 0.535740528988 -0.002025
0.00826722556745 0.535437676967 0.0
0.0169892914762 0.544431429496 0.0
0.0120747300683 0.538230876948 -0.002025
0.0154940321654 0.540545169104 -0.002025
0.0142219159999 0.540673657967 0.0
0.0120403699005 0.537039273033 0.0
0.0217101483073 0.54443142587 0.0
0.0217932695733 0.544429441506 -0.002025
0.00411046013718 0.528419432381 -0.002025
0.00411046013718 0.528419432381 0.0
0.0 0.521310072953 0.0
0.00411046013718 0.523679859429 -0.002025
0.0 0.521310072953 -0.002025
0.00411046013718 0.523679859429 0.0
0.0 0.5165705 0.0
0.0 0.5165705 -0.002025
0.0 0.511830927047 0.0
0.0 0.511830927047 -0.002025
0.0335122899796 0.548536212935 0.0
0.0336035946241 0.548535220753 -0.002025
0.0382331466485 0.548536212935 0.0
0.0383277246444 0.548535220753 -0.002025
0.0429540033175 0.548536212935 0.0
0.0430518546647 0.548535220753 -0.002025
0.0547561449898 0.552641 0.0
0.0548621797155 0.552641 -0.002025
0.0476748599864 0.548536212935 0.0
0.0477759846851 0.548535220753 -0.002025
0.0523957166553 0.548536212935 0.0
0.0525001147054 0.548535220753 -0.002025
0.146357178682 0.549891004544 0.0
0.146148624604 0.549779722776 -0.002025
0.14916099575 0.547236811334 0.0
0.149090740912 0.547076343085 -0.002025
0.152 0.544944150334 0.0
0.152 0.544943444403 -0.002025
0.139798133518 0.552641 -0.002025
0.141913035462 0.549371602036 -0.002025
0.135130633267 0.552641 -0.002025
0.139731553066 0.552641 0.0
0.142083461247 0.548938503892 0.0
0.0264310049762 0.54443142587 0.0
0.0265173995936 0.544429441506 -0.002025
0.0311518616451 0.54443142587 0.0
0.0312415296139 0.544429441506 -0.002025
0.00822092027436 0.530789218858 -0.002025
0.00823129975921 0.530728940542 0.0
0.0195026976624 0.540319976495 -0.002025
0.0122664623282 0.533427702858 -0.002025
0.0123900153396 0.53304955484 0.0
0.0193230922421 0.540273132076 0.0
0.0167219940152 0.535983347511 -0.002025
0.016585679876 0.535891464729 0.0
0.0240705766417 0.540326638804 0.0
0.0241553345835 0.540323662259 -0.002025
0.00822092027436 0.526049645905 -0.002025
0.00822092027436 0.526049645905 0.0
0.00411046013718 0.518940286476 0.0
0.00822092027436 0.521310072953 -0.002025
0.00411046013718 0.518940286476 -0.002025
0.00822092027436 0.521310072953 0.0
0.0 0.507091354095 -0.002025
0.0 0.507091354095 0.0
0.0 0.502351781142 -0.002025
0.0 0.502351781142 0.0
0.00411046013718 0.514200713524 0.0
0.00411046013718 0.514200713524 -0.0010125
0.00411046013718 0.514200713524 -0.002025
0.00411046013718 0.509461140571 0.0
0.00411046013718 0.509461140571 -0.002025
0.00822092027436 0.5165705 -0.002025
0.0358727183141 0.54443142587 0.0
0.0359656596343 0.544429441506 -0.002025
0.040593574983 0.54443142587 0.0
0.0406897896546 0.544429441506 -0.002025
0.0453144316519 0.54443142587 0.0
0.0454139196749 0.544429441506 -0.002025
0.0 0.488157556731 0.0
0.0 0.483871215861 0.0
0.0 0.4805 0.0
0.0 0.483871215861 -0.002025
0.0 0.4805 -0.002025
0.0594770016587 0.552641 0.0
0.0595863097359 0.552641 -0.002025
0.0641978583277 0.552641 0.0
0.0643104397562 0.552641 -0.002025
0.0689187149966 0.552641 0.0
0.0690345697765 0.552641 -0.002025
0.0571165733243 0.548536212935 0.0
0.0572242447257 0.548535220753 -0.002025
0.0500352883209 0.54443142587 0.0
0.0501380496952 0.544429441506 -0.002025
0.0547561449898 0.54443142587 0.0
0.0548621797155 0.544429441506 -0.002025
0.144686201113 0.545533485902 0.0
0.144009766127 0.545025866879 -0.002025
0.14797771068 0.542636862962 0.0
0.147902213018 0.542585716724 -0.002025
0.152 0.540228688041 0.0
0.152 0.540227989044 -0.002025
0.135010708362 0.552641 0.0
0.13042043962 0.552641 -0.002025
0.12571021981 0.552641 -0.002025
0.137577575001 0.548891152172 -0.002025
0.139854894013 0.546201521641 -0.002025
0.130289851693 0.552641 0.0
0.132992379009 0.548884580307 -0.002025
0.137371130714 0.548536216561 0.0
0.13995035789 0.544702514918 0.0
0.0736395716655 0.552641 0.0
0.0737586997968 0.552641 -0.002025
0.125568995024 0.552641 0.0
0.121 0.552641 -0.002025
0.120848138355 0.552641 0.0
0.0783604283345 0.552641 0.0
0.0287914333107 0.540326638804 0.0
0.0288794646038 0.540323662259 -0.002025
0.0335122899796 0.540326638804 0.0
0.0336035946241 0.540323662259 -0.002025
0.0123313804115 0.528419432381 -0.002025
0.0123313804115 0.528419432381 0.0
0.0217986914832 0.536696682682 -0.002025
0.0163754882953 0.530654498573 -0.002025
0.0163597739958 0.530633202805 0.0
0.0216779952827 0.536541395979 0.0
0.0200521521602 0.532976625685 -0.002025
0.0199834289429 0.532722259717 0.0
0.0264310049762 0.536221851739 0.0
0.0265271543348 0.536279542554 -0.002025
0.0123313804115 0.523679859429 -0.002025
0.0123313804115 0.518940286476 -0.002025
0.0123313804115 0.523679859429 0.0
0.00822092027436 0.5165705 0.0
0.0123313804115 0.518940286476 0.0
0.0 0.488157556731 -0.002025
0.0 0.49761220819 0.0
0.0 0.492872636597 0.0
0.0021690425596 0.494656742706 -0.0010125
0.0 0.49761220819 -0.002025
0.0 0.492872636597 -0.002025
0.00411046013718 0.504721567619 -0.002025
0.00411046013718 0.504721567619 0.0
0.00411046013718 0.499981994666 -0.002025
0.00397890165359 0.499670190075 -0.0010125
0.00411046013718 0.499981994666 0.0
0.00822092027436 0.511830927047 0.0
0.00822092027436 0.511830927047 -0.002025
0.00822092027436 0.507091354095 0.0
0.00822092027436 0.507091354095 -0.002025
0.0123313804115 0.514200713524 -0.002025
0.0382331466485 0.540326638804 0.0
0.0383277246444 0.540323662259 -0.002025
0.0429540033175 0.540326638804 0.0
0.0430518546647 0.540323662259 -0.002025
0.0476748599864 0.540326638804 0.0
0.0477759846851 0.540323662259 -0.002025
0.00358330541074 0.490448959055 0.0
0.00299920374473 0.48645311717 0.0
0.0029773344929 0.486348130032 -0.002025
0.00301590676507 0.483020337691 0.0
0.00293640644896 0.4805 0.0
0.00574447624759 0.484503205838 0.0
0.00570822739252 0.484327754113 -0.0010125
0.00301993190233 0.483029043936 -0.002025
0.00293640644896 0.4805 -0.002025
0.00574149095343 0.484468867962 -0.002025
0.0784828298171 0.552641 -0.002025
0.0830812850034 0.552641 0.0
0.0832069598375 0.552641 -0.002025
0.0618374299932 0.548536212935 0.0
0.061948374746 0.548535220753 -0.002025
0.0665582866621 0.548536212935 0.0
0.0666725047663 0.548535220753 -0.002025
0.0712791433311 0.548536212935 0.0
0.0713966347867 0.548535220753 -0.002025
0.0594770016587 0.54443142587 0.0
0.0595863097359 0.544429441506 -0.002025
0.0525001147054 0.540323662259 -0.002025
0.0523957166553 0.540326638804 0.0
0.0571165733243 0.540326638804 0.0
0.0572242447257 0.540323662259 -0.002025
0.116127281686 0.552641 0.0
0.11627586998 0.552641 -0.002025
0.13997943118 0.542410794759 -0.002025
0.143004611966 0.540845035525 0.0
0.143789302877 0.540232959616 -0.002025
0.147889760174 0.537859264983 0.0
0.147889762033 0.537858569053 -0.002025
0.152 0.535489841926 0.0
0.152 0.535489149063 -0.002025
0.132650280027 0.548536212935 0.0
0.12829145956 0.549375057765 -0.002025
0.12433657695 0.549805082922 -0.002025
0.135865199825 0.544541948029 -0.002025
0.130707489486 0.545346906745 -0.002025
0.127929423358 0.548536212935 0.0
0.135088022694 0.544495923106 0.0
0.136816310796 0.5406025022 -0.002025
0.137651096199 0.540476427018 0.0
0.076 0.548536212935 0.0
0.076120764807 0.548535220753 -0.002025
0.123208566689 0.548536212935 0.0
0.117839032065 0.549064601646 -0.002025
0.121 0.54791757265 -0.002025
0.0878021416723 0.552641 0.0
0.0879310898578 0.552641 -0.002025
0.111406425017 0.552641 0.0
0.111551739959 0.552641 -0.002025
[...]
POINT_DATA 17773
VECTORS FID_Displacement double
0.100768753169 0.00907390509923 -0.0705446647468
0.0991637931656 0.00970987713932 -0.0715115150867
0.0976273619357 0.00960011524916 -0.0687011285189
0.0992194686144 0.0089615774722 -0.0677056838434
0.0990137101257 0.00910680333436 -0.0681546491027
0.0974387647921 0.00974082893761 -0.0691627336945
0.0998226705012 0.00924768446972 -0.0700625090245
0.0982167128852 0.00988153391239 -0.0710289673653
0.0956675151192 0.00946397861383 -0.0651323388048
0.0972453669064 0.00882240460722 -0.0640958142804
0.0970173057425 0.0100965883334 -0.0704215663624
0.0986248743156 0.0094677665823 -0.0694555511976
0.0957999259774 0.00966943128409 -0.0664055019818
0.0974390952992 0.0090230837137 -0.0654207142365
0.0979104385252 0.00925539276814 -0.0673147715322
0.096344455908 0.00988377359403 -0.0683269349888
0.0973163420483 0.00970573179768 -0.068795101649
0.0957068506332 0.0103291166554 -0.069760894979
0.0950632941206 0.00867594943174 -0.0601319819203
0.0934807925663 0.00931629703939 -0.0611752233881
0.0963355865567 0.00943653688024 -0.0659644641275
0.0950830973002 0.0089513530232 -0.0615890910728
0.0935400016173 0.00958587911825 -0.0626658958511
0.0946050779021 0.010085868648 -0.0668794944852
0.0939526429141 0.00983005804953 -0.0645706811144
0.0954254602975 0.00921759924378 -0.0634830553765
0.0951381519283 0.00962470037056 -0.06521690195
0.0913237063566 0.00913900220816 -0.0571678862346
0.0928744859217 0.00855376254971 -0.0561907468961
0.057515174419 -0.0227905369374 -0.0573332647269
0.0591207614596 -0.0233912542134 -0.0563861271761
0.0898748650082 0.00867539915842 -0.0532967530102
0.0910490837602 0.00827361764592 -0.0528181190763
0.0898409150979 0.0075305920968 -0.0511554171203
0.0901269288407 0.00733594484604 -0.0510934237507
0.0960101191324 0.00994064488331 -0.0681372819355
0.0943987171803 0.0105596936441 -0.0691028222108
0.0948844411669 0.00966689575229 -0.0650673440009
0.0931579379306 0.0103083064507 -0.065974584059
0.0928049763502 0.00883304863146 -0.0576424684653
0.0912433993162 0.00945817017457 -0.0585925421666
0.0937869416562 0.0094242741042 -0.0621848030945
0.092641582627 0.00916639738132 -0.0591240435967
0.0913819480564 0.00973360561135 -0.0603031210195
0.0917254136638 0.0100271569165 -0.0623972604725
0.0893535668994 0.00921607596199 -0.0546137985686
0.0907475672125 0.00858567394318 -0.0538549455848
0.0947122148196 0.0101731848498 -0.0674846935128
0.093099214544 0.010788174361 -0.0684497427627
0.0934227388071 0.0104045303683 -0.066837948637
0.0918082411555 0.0110152681249 -0.0678020249711
0.0900259744351 0.0058634621083 -0.0514828725156
0.0895461484405 0.00587100976295 -0.0514201097266
0.0896913777131 0.00417964180928 -0.05322464354
0.0888112829252 0.00425684920712 -0.0530456972888
0.088941166814 0.00255426063406 -0.0555624321046
0.0878746400673 0.00262090817499 -0.0553004508089
0.0879952011746 0.000959414056643 -0.0580952770449
0.0868619197563 0.00099519718754 -0.0577985327771
0.0869956125251 -0.000629399062562 -0.0606636027835
0.0858457372862 -0.000612840613021 -0.0603597997379
0.0590825284074 -0.0224926018837 -0.0601507139753
0.0607261876223 -0.0230891865228 -0.0592646532387
0.0579341040847 -0.0224506702173 -0.0591816515916
0.0595306424195 -0.0230408438292 -0.0582905961349
0.0565079971443 -0.0226232351798 -0.0570376344842
0.0581100183422 -0.0232288865128 -0.0560923377153
0.0627309854564 -0.0227174389589 -0.0628383717556
0.0610840684335 -0.0221141434709 -0.0637267852284
0.0885517219098 0.00852959537344 -0.0514157381516
0.0892485424136 0.00800809247847 -0.0511818326539
0.0887509363127 0.00705394075271 -0.0506288988904
0.0885149967612 0.00678893003342 -0.0505863073973
0.0934681443667 0.00991967313027 -0.0643488780895
0.0918503427892 0.0105382548139 -0.0653187081106
0.0905974075458 0.00893402271588 -0.0550588074246
0.0923074415094 0.00966082988514 -0.061297874804
0.0905518517754 0.0102927051611 -0.0621321900819
0.0890425169724 0.00957794952243 -0.0559947187896
0.091167227609 0.00941479457255 -0.0583295272128
0.090208056487 0.00919303064918 -0.0557808537717
0.0892237437897 0.00985632649004 -0.0578406028331
0.0892337095435 0.0100974938619 -0.0591693092588
0.0875619691858 0.0091866976499 -0.0522119949531
0.0887101882992 0.0085586609684 -0.0516977684115
0.0921742614923 0.0101507718583 -0.0636984116401
0.0905582481744 0.0107641229422 -0.064667249182
0.0905264917085 0.0112405485597 -0.0671616972553
0.0908895741652 0.0103800706527 -0.063054393261
0.092142369525 0.0106348467391 -0.0661988287526
0.0892719840925 0.0109884875131 -0.0640223552602
0.0892539817152 0.0114638471704 -0.0665309800145
0.0908710163066 0.0108631805454 -0.06556933214
0.0879899389639 0.011683981995 -0.0659105359409
0.0896081052351 0.0110883442715 -0.0649502277954
0.0886286807569 0.00534768878636 -0.0517786401514
0.087886777984 0.00527413701 -0.051649684573
0.0880744602009 0.00367314471378 -0.0537956589051
0.0870865731261 0.00367367866067 -0.0535711512634
0.0872499238459 0.00204381290494 -0.0561819754943
0.0861524656234 0.00205683106241 -0.0559030878974
0.0859921098214 -0.00221268036047 -0.0632314890084
0.0848406753214 -0.0022063134541 -0.0629287786629
0.0863046731088 0.000438345874382 -0.0586998991526
0.0851676879985 0.000446137045801 -0.0584006867454
0.0853224317009 -0.00115467384655 -0.0612550282356
0.0841744238454 -0.00115291147426 -0.0609513698391
0.059340893062 -0.0221492541794 -0.0618472688533
0.0610118870252 -0.0227355508828 -0.0610616046179
0.0572275866348 -0.0222635790131 -0.0592513310443
0.0588140932602 -0.0228597714023 -0.0583495585092
0.0552099480514 -0.0224015333147 -0.0566601942287
0.0568096210296 -0.0230145883074 -0.0557162112563
0.0648868128534 -0.0223141549744 -0.0666606100804
0.0628841191305 -0.022340213742 -0.0645941528357
0.0671140816737 -0.0218783868331 -0.07058718062
0.0633083822594 -0.0216914228966 -0.0676726503675
0.0610657878578 -0.021717142282 -0.0653665566814
0.0874112466988 0.00812802772187 -0.0499927508923
0.0876011348395 0.00770575384813 -0.0499134858643
0.0875370218678 0.00649650649645 -0.0503934704108
0.0869796006891 0.00628888199252 -0.0502984132586
0.0909169872604 0.00989962023619 -0.0605534991614
0.0892764839273 0.0105181270168 -0.061512263229
0.0883658267153 0.0090030858469 -0.052580076993
0.0897531164755 0.00964242297238 -0.0574973592901
0.0879707784101 0.0102738466547 -0.0583196524197
0.0869745272409 0.00963841884711 -0.0534490767302
0.0883851339649 0.00936765465159 -0.0541251186681
0.0868291610935 0.0100019566347 -0.0551654137214
0.0861160419108 0.0089823841598 -0.0501428115056
0.0868708937114 0.00843781524171 -0.0498831642933
0.0896266954475 0.0101279799328 -0.0599050240179
0.0880065214554 0.0107393709058 -0.060880172897
0.087995333496 0.0112099949398 -0.0633862837294
0.0883477001314 0.0103547235213 -0.0592641005703
0.0896141700471 0.0106070551161 -0.0624195090732
0.0867251613916 0.0109600740523 -0.0602383691633
0.088352052545 0.0113098785074 -0.0643410145327
0.0867333950649 0.011901227853 -0.0652996995308
0.0871020558349 0.0115273733971 -0.0637407778281
0.0854831373045 0.0121145766664 -0.064697775246
0.0867276906231 0.0114283346634 -0.0627606983671
0.0875377829545 0.0111295449677 -0.0622782216449
0.0883476855318 0.0108308345011 -0.0617955871949
0.0854685344626 0.0116434584928 -0.0621458578032
0.0870891511915 0.0110509583188 -0.061182407669
0.0870774629193 0.0105781682122 -0.0586347296988
0.0871796436017 0.00480194168474 -0.052070210106
0.0862835854145 0.0047190162305 -0.0518790728758
0.0864821152298 0.00314426714137 -0.0542881807767
0.085430651335 0.0031136198713 -0.0540295801374
0.0856048849975 0.00151964894362 -0.0567337779501
0.0844860018543 0.00150469025985 -0.0564415888953
0.0817820681604 0.0127212521054 -0.0629404348664
0.0806883413507 0.0128905342083 -0.0624260698996
0.0798396479079 0.0130211765547 -0.0620271391454
0.0823075290064 0.0123304559029 -0.0614802151886
0.0814597950408 0.012465671025 -0.061082123642
0.0849981130325 -0.00378924160789 -0.0657938127662
0.0838488497705 -0.00378815546549 -0.0654937679789
0.084015983179 -0.00535897527432 -0.0683527098338
0.0828691073798 -0.00536022952206 -0.0680550650206
0.0830448024558 -0.00692195424487 -0.0709126786531
0.0818992700631 -0.00692406682964 -0.0706164842133
0.0843363835033 -0.00273819606279 -0.0638175042879
0.0831870969137 -0.00274041836995 -0.063514733194
0.0846515195876 -8.52907874307e-05 -0.0592650904561
0.0835079149362 -9.73691665415e-05 -0.0589610286298
0.0836751761221 -0.00167706964351 -0.0618235313172
0.0825248731089 -0.00168916487795 -0.0615174569698
0.0588055812235 -0.0217756803862 -0.0628712871485
0.0605698447513 -0.022304550521 -0.0624462229378
0.0563872905662 -0.0219196937759 -0.0598418515734
0.0580076679091 -0.0225243389471 -0.0589538310909
0.0537805052027 -0.0221517752903 -0.0562395875585
0.0553815350164 -0.0227679166378 -0.0552938842458
0.0655618950996 -0.0212464370171 -0.0716458947927
0.0693822480907 -0.0213942495379 -0.0745467855975
0.0717498465752 -0.0208505665782 -0.0785338451021
0.0647869443138 -0.0219198674461 -0.068206479453
0.0628820313444 -0.0219915513685 -0.066050776879
0.0678272112706 -0.0207715662702 -0.0756271852323
0.0669707968738 -0.0214740222785 -0.0720772338871
0.0631707694432 -0.0212619608296 -0.0693072899662
0.0607766218375 -0.0213066471899 -0.0667920167118
0.0820829122898 -0.0084784980358 -0.0734784250063
0.0809373587481 -0.00848116535153 -0.0731825431381
0.0701579087161 -0.0202689465956 -0.0797223372935
0.0745897475499 -0.0203599380945 -0.0828247353995
0.0728659171041 -0.0199219138949 -0.084306168875
0.0811288157565 -0.0100291395766 -0.0760541139748
0.0863312662383 0.00759389723427 -0.0492384841102
0.0860866883695 0.00727860106373 -0.0491802690542
0.0862252886777 0.00592189226112 -0.0504170363515
0.085463319798 0.00577093282327 -0.0502651700036
0.0883531428575 0.00987997301542 -0.0567547393843
0.0867320201626 0.0104933789244 -0.0577332826981
0.0865126824285 0.0089676848294 -0.0505256967103
0.087084095196 0.00963284861312 -0.0536732261287
0.0854823075882 0.0102544715332 -0.05463117371
0.0852768842449 0.00958467375123 -0.051093266529
0.0861071285209 0.00932542755769 -0.05113202825
0.0846461640394 0.00995035927016 -0.0518594153081
0.084974490806 0.00860055483141 -0.0486452471878
0.0852441978649 0.00815749041647 -0.0485582496439
0.0870691053145 0.0101052787555 -0.0561065315049
0.085793791618 0.0103306729748 -0.0554701722431
0.0854453249384 0.0107126347183 -0.0570842115611
0.0854541451238 0.0111775116695 -0.0596078470461
0.0841720492181 0.010932055239 -0.0564481424733
0.0834000470798 0.0121522926331 -0.0619918173095
0.0842387276501 0.0123236226935 -0.0641034146028
0.0830016611666 0.012526822399 -0.0635162776896
0.083281939212 0.0120770480165 -0.0614379922193
0.0858572305013 0.0117407670828 -0.0631485529186
0.0846196472345 0.0119496080279 -0.0625642622272
0.0858376566966 0.0112673075017 -0.0605792967112
0.0842165958463 0.0118553384759 -0.0615408035265
0.0845922983038 0.0114798936177 -0.0599853708166
0.0837607110657 0.0117902618361 -0.0605370165816
0.0829712963122 0.0120634770492 -0.0609448460072
0.0841929439825 0.0113912778816 -0.0589881202461
0.0858172092087 0.0107973262444 -0.0580179060391
0.0829395724293 0.0116019589224 -0.0583798432545
0.0845642644659 0.0110130525551 -0.0574112615575
0.084533477517 0.010548851887 -0.0548485817128
0.0856847017681 0.00424878615584 -0.0524185141757
0.0846954860237 0.00417727618224 -0.0521840856985
0.0848936616149 0.00260715297377 -0.0547664629121
0.0838021947538 0.0025691243838 -0.0544848711125
0.083980813643 0.000990044866339 -0.0572596624998
0.0828460761011 0.000963970690177 -0.056957090619
0.0807321230796 0.0124875416146 -0.0602131371333
0.0799745017549 0.0126712555283 -0.0602213363557
0.0815791567855 0.0121115404775 -0.0592760998409
0.0790966554019 0.0128047408458 -0.0597989507341
0.0785003669509 0.0129050074576 -0.0595682581924
0.0782177823048 0.0126424907899 -0.057685763423
0.0790032095074 0.0123705053055 -0.0572178282281
0.0807193469329 0.0122461300313 -0.0588472701589
0.0801235754232 0.0123504937711 -0.0586197691687
0.0798364594477 0.0120834809834 -0.0567288105026
0.0799819055313 -0.0100331218379 -0.0757574098612
0.0801815128913 -0.0115744293102 -0.0786430639892
0.0790321031897 -0.0115818416138 -0.0783444922327
0.0833571003078 -0.00431313216399 -0.0663802717925
0.0822091937924 -0.00431748340844 -0.0660796004341
0.0823871334335 -0.00587997608653 -0.0689437881656
0.0812407029227 -0.00588530354822 -0.0686449377321
0.0814264321908 -0.007439212652 -0.0715106827769
0.0802807567331 -0.00744511248707 -0.0712129050199
0.0826978075483 -0.00325827239162 -0.0643888872827
0.0815471926549 -0.00327049335301 -0.0640841963769
0.0818689621439 -0.000632599682323 -0.0594992479765
0.0830190451097 -0.000610463966469 -0.0598082330382
0.0820439337531 -0.00219836814653 -0.0623748615258
0.0808902789681 -0.00221874161224 -0.0620657644677
0.0741984360503 -0.0202101902078 -0.0881227804401
0.0754553324757 -0.0208764814929 -0.0872484532212
0.0616672362847 -0.0218098459401 -0.0656088669509
0.058169948972 -0.0213899844946 -0.0638719382495
0.0592191542165 -0.0220407385014 -0.0622050612383
0.0549843003825 -0.0216677836817 -0.0594880098654
0.0565864530069 -0.0222800974633 -0.0585392580462
0.0523503599148 -0.0218995300713 -0.0558084184626
0.0539548896725 -0.0225144597677 -0.0548592050764
0.0654190740656 -0.0208035198495 -0.0733063253258
0.0694344144764 -0.0210000398712 -0.0761089650696
0.071660886263 -0.0206101391883 -0.0795497750875
0.0642620885155 -0.0215355832163 -0.0692695077674
0.0670002771665 -0.0210695092792 -0.0737066113555
0.0677242115011 -0.0203191169006 -0.077378193843
0.0630135509665 -0.0208440531479 -0.0708866287948
0.0626173687909 -0.0214335362247 -0.0681134137827
0.0605778529055 -0.0208949111264 -0.0683582424493
0.0804743523813 -0.00899143176457 -0.0740838427536
0.0793285821832 -0.00899824442962 -0.0737863132815
0.0702614281742 -0.0198333746794 -0.0816065824085
0.0742621979927 -0.0204731948797 -0.0852837563625
0.0730681553935 -0.0201085544656 -0.0823629210703
0.0792408209134 -0.0131145010234 -0.0812469043368
0.0780884898588 -0.013130013489 -0.0809457500386
0.0752025629804 -0.0199997225894 -0.0908003543801
0.0757687887721 -0.0206581357467 -0.090478573067
0.075216400624 -0.0194579235417 -0.0906483140645
0.0755047053665 -0.0178509628354 -0.0886668031261
0.075843460883 -0.0190383857725 -0.0907871666644
0.0783087546464 -0.0146479687337 -0.0838616657383
0.0771563922031 -0.0146822458848 -0.0835587548872
0.0765378028264 -0.0176589616314 -0.0889205127524
0.0773952421698 -0.0161686805098 -0.0864608032173
0.0762613740735 -0.0162483303671 -0.0861638693787
0.0725547642414 -0.0197819280729 -0.0855736440928
0.0795305197557 -0.0105373075727 -0.0766654470054
0.0851578875038 0.00701912127895 -0.0489529753124
0.084827775923 0.00535061901157 -0.0506180235787
0.0846128391949 0.00679965188629 -0.0488549575991
0.0839348177221 0.00524043111158 -0.0504195889482
0.0857955298511 0.00985067418981 -0.0529835202727
0.0841990040249 0.010456474564 -0.0539333379128
0.0846217140548 0.0088591321542 -0.0486557650907
0.0844260504919 0.00944148626305 -0.0497033035763
0.0830981915429 0.0100431582994 -0.0503303451854
0.0837844677512 0.00940385697917 -0.048940594611
0.0839428145576 0.00808846016376 -0.0478377663807
0.0837868997354 0.00775763585481 -0.0478012952078
0.0845194313122 0.0100743253847 -0.0523412035781
0.0832502223009 0.0102944024912 -0.0517023938426
0.0829204052682 0.0106761587772 -0.0532888547385
0.0829054608382 0.0111428118716 -0.0558232764248
0.0816533284316 0.0108909439794 -0.0526544136898
0.0822531518703 0.0119141900059 -0.0591150021613
0.0817328929294 0.0122672151524 -0.0603569712381
0.0833539224213 0.0116884068093 -0.0593995544893
0.0833783787037 0.011217575462 -0.056856593531
0.0816931264895 0.0118098101208 -0.0577812062471
0.0822021442086 0.0114142112159 -0.0562923192357
0.0804532013084 0.0120139477372 -0.0571916280038
0.0820978430878 0.00995598232929 -0.0487958293698
0.0816524695374 0.0113529389186 -0.0552129259018
0.0832781984746 0.0107636960293 -0.0542378119832
0.0804024986282 0.0115612712045 -0.05461015554
0.082147991375 0.0109571016501 -0.0537003089799
0.0820512097571 0.0105112230653 -0.0511637939482
0.0808168807507 0.0101857794534 -0.048152527407
0.0841539236843 0.00369662733603 -0.0528215838775
0.0831063695222 0.00363800912758 -0.0525582692203
0.0832997973289 0.00206792813122 -0.0552530424767
0.082183362801 0.00203089384672 -0.0549570396829
0.0823627821228 0.000458560048535 -0.05777971712
0.0812178527963 0.000429683133961 -0.0574705443393
0.078422501018 0.0124804000889 -0.0570332797432
0.0787993757883 0.0122342129387 -0.0561485189906
0.0800951197536 0.0119118548828 -0.0561267107356
0.0768496099265 0.0127663667694 -0.0565550183953
0.0765575021645 0.0125402442625 -0.0548446489265
0.0782068393068 0.011977387676 -0.0538900434102
0.0784788142762 0.0122133046876 -0.0555988116016
0.0783840744647 -0.0105462521132 -0.0763674796999
0.0785954637764 -0.0120774749 -0.0792558472282
0.0774486135513 -0.0120911150844 -0.0789571912937
0.0817269169851 -0.00482995920234 -0.0669560425391
0.0805776958232 -0.00484199542492 -0.0666534143942
0.0807644978485 -0.00639281753489 -0.0695251901697
0.0796166918089 -0.00640451842255 -0.0692243322105
0.0798107443303 -0.00794753528915 -0.0720981081878
0.078663904485 -0.00795904379764 -0.071798458763
0.0810702869231 -0.00377541617843 -0.0649463645767
0.0799172532844 -0.0037944094471 -0.0646392310465
0.0802396299391 -0.0011618979502 -0.0600302152549
0.0813942364376 -0.00113633578419 -0.0603425869458
0.0804184252575 -0.00271914262397 -0.0629172777307
0.0792620829451 -0.00274264100763 -0.0626058659905
0.0738128402067 -0.0199426209959 -0.0889078591753
0.0748339701817 -0.0204640543645 -0.0884765389462
0.062350389212 -0.0212201960879 -0.0687750434496
0.060485989926 -0.0215475656705 -0.0655611524808
0.0584420219432 -0.0209332515697 -0.0661319918681
0.0562215429064 -0.0212001534608 -0.0627598521256
0.0578024400641 -0.0218059108004 -0.0617838832733
0.0535650161202 -0.0214310409924 -0.0590567903013
0.0551710291296 -0.0220396176063 -0.0581046408835
0.0509346574577 -0.0216509352184 -0.0553697011992
0.0525436063557 -0.0222619072092 -0.0544162819671
0.0653078101685 -0.02037661823 -0.0749796799391
0.0697711112482 -0.0205623764114 -0.0782234389559
0.0645021063685 -0.021080577292 -0.0713847710568
0.0670202306688 -0.0207279069509 -0.0751579099795
0.0677224503335 -0.0199040713179 -0.0791083304207
0.0629216085918 -0.0204314494756 -0.0725883631912
0.0633435957793 -0.0208808871419 -0.0712117318271
0.0602404589475 -0.0204961668216 -0.0698330030404
0.0788655416909 -0.00949488756592 -0.0746765078665
0.0777193733322 -0.00950673619471 -0.0743775823546
0.0703307621549 -0.0195534609116 -0.0832273064909
0.0733495569134 -0.0202626833206 -0.0851391699317
0.0715609864244 -0.0200348540385 -0.0818727787031
0.0776717713914 -0.013612292801 -0.0818507499997
0.0765273957917 -0.0136356024409 -0.0815524547355
0.0744802977549 -0.019517161712 -0.0903446210173
0.0743785443915 -0.019695878859 -0.0901963866577
0.0745371636864 -0.0189451681894 -0.0898916701842
0.0756373751119 -0.0151841270244 -0.0841393004942
0.0744047911564 -0.018317313622 -0.0889890749459
0.0748330478643 -0.0167427620093 -0.0866660021336
0.0751465026485 -0.0181497040495 -0.0891207089925
0.0767672702014 -0.0151413920004 -0.0844315004319
0.0759041348908 -0.0166609383484 -0.086932109231
0.0720924556867 -0.0196752501491 -0.0867810572666
0.0779293261317 -0.0110357313873 -0.0772608293801
0.0838812210355 0.00644356932553 -0.0489511570133
0.0833684063541 0.00478432137234 -0.0509327474764
0.0831345074616 0.00628432382643 -0.0488019705571
0.0823869271787 0.00470343978357 -0.050697216818
0.0825613677514 0.0092166877366 -0.0474884232977
0.0830550988369 0.00859484229936 -0.0473072711693
0.0833164611272 0.00973172844584 -0.0494202978597
0.0819158804288 0.0103342907211 -0.0501201630883
0.0828365553975 0.00886072038005 -0.0472857743108
0.0816827904967 0.00973621767189 -0.0477518366701
0.0827071000794 0.00903943010699 -0.0473966845964