# vtk DataFile Version 2.0
Unstructured Grid Example
ASCII
DATASET UNSTRUCTURED_GRID
POINTS 17773 double
0.0 0.552641 -0.002025
0.0 0.552641 0.0
0.00334435244261 0.552641 0.0
0.00337460188434 0.552641 -0.002025
0.00246240520633 0.550417197387 -0.002025
0.00242397655929 0.550466372258 0.0
0.0 0.549269784139 -0.002025
0.0 0.549269784139 0.0
0.00758462834993 0.552641 0.0
0.0076544207894 0.552641 -0.002025
0.0 0.544983443269 0.0
0.0 0.544983443269 -0.002025
0.00559627389327 0.549844329796 0.0
0.00563968870962 0.550022014328 -0.002025
0.00292151668933 0.547233850137 -0.002025
0.00288601599241 0.547326240413 0.0
0.0 0.540268363403 -0.002025
0.0 0.540268363403 0.0
0.0123450188921 0.552641 -0.002025
0.0122684469336 0.552641 0.0
0.00383020081638 0.54308507632 -0.002025
0.00996441344481 0.548773591126 -0.002025
0.00986538540686 0.548863234036 0.0
0.00382110121205 0.542638903767 0.0
0.00707604096378 0.545705565416 0.0
0.00714191399664 0.545310752684 -0.002025
0.00544411311188 0.544187275083 -0.00107061318492
0.0169892916383 0.552641 0.0
0.017069139553 0.552641 -0.002025
0.152 0.552641 0.0
0.152 0.552641 -0.002025
0.0217101483073 0.552641 0.0
0.0217932695733 0.552641 -0.002025
0.0264310049762 0.552641 0.0
0.0265173995936 0.552641 -0.002025
0.0 0.53552879181 -0.002025
0.0 0.53552879181 0.0
0.00410188811675 0.538296282087 -0.002025
0.0041104597249 0.537898577606 0.0
0.0145663954226 0.548278651831 -0.002025
0.014628869286 0.548536216561 0.0
0.00791694556994 0.540707477012 -0.002025
0.011982552655 0.543396376513 -0.002025
0.0119528582293 0.544642208235 0.0
0.00880145067137 0.540580831971 0.0
0.0193497199728 0.548536212935 0.0
0.0194312045631 0.548535220753 -0.002025
0.0 0.530789218858 -0.002025
0.0 0.530789218858 0.0
0.0 0.526049645905 -0.002025
0.0 0.526049645905 0.0
0.0311518616451 0.552641 0.0
0.0312415296139 0.552641 -0.002025
0.0358727183141 0.552641 0.0
0.0359656596343 0.552641 -0.002025
0.040593574983 0.552641 0.0
0.0406897896546 0.552641 -0.002025
0.0453144316519 0.552641 0.0
0.0454139196749 0.552641 -0.002025
0.0500352883209 0.552641 0.0
0.0501380496952 0.552641 -0.002025
0.148655647557 0.552641 0.0
0.148579185907 0.552641 -0.002025
0.149551483278 0.550197407183 0.0
0.149466931796 0.550036433408 -0.002025
0.152 0.549252154155 0.0
0.152 0.549251829683 -0.002025
0.144336732913 0.552641 -0.002025
0.14441537165 0.552641 0.0
0.0240705766417 0.548536212935 0.0
0.0241553345835 0.548535220753 -0.002025
0.0287914333107 0.548536212935 0.0
0.0288794646038 0.548535220753 -0.002025
0.00411046013718 0.533159005334 -0.002025
0.00410705938548 0.533141134398 0.0
0.0170547713826 0.544509442631 -0.002025
0.00814879907732 0.535740528988 -0.002025
0.00826722556745 0.535437676967 0.0
0.0169892914762 0.544431429496 0.0
0.0120747300683 0.538230876948 -0.002025
0.0154940321654 0.540545169104 -0.002025
0.0142219159999 0.540673657967 0.0
0.0120403699005 0.537039273033 0.0
0.0217101483073 0.54443142587 0.0
0.0217932695733 0.544429441506 -0.002025
0.00411046013718 0.528419432381 -0.002025
0.00411046013718 0.528419432381 0.0
0.0 0.521310072953 0.0
0.00411046013718 0.523679859429 -0.002025
0.0 0.521310072953 -0.002025
0.00411046013718 0.523679859429 0.0
0.0 0.5165705 0.0
0.0 0.5165705 -0.002025
0.0 0.511830927047 0.0
0.0 0.511830927047 -0.002025
0.0335122899796 0.548536212935 0.0
0.0336035946241 0.548535220753 -0.002025
0.0382331466485 0.548536212935 0.0
0.0383277246444 0.548535220753 -0.002025
0.0429540033175 0.548536212935 0.0
0.0430518546647 0.548535220753 -0.002025
0.0547561449898 0.552641 0.0
0.0548621797155 0.552641 -0.002025
0.0476748599864 0.548536212935 0.0
0.0477759846851 0.548535220753 -0.002025
0.0523957166553 0.548536212935 0.0
0.0525001147054 0.548535220753 -0.002025
0.146357178682 0.549891004544 0.0
0.146148624604 0.549779722776 -0.002025
0.14916099575 0.547236811334 0.0
0.149090740912 0.547076343085 -0.002025
0.152 0.544944150334 0.0
0.152 0.544943444403 -0.002025
0.139798133518 0.552641 -0.002025
0.141913035462 0.549371602036 -0.002025
0.135130633267 0.552641 -0.002025
0.139731553066 0.552641 0.0
0.142083461247 0.548938503892 0.0
0.0264310049762 0.54443142587 0.0
0.0265173995936 0.544429441506 -0.002025
0.0311518616451 0.54443142587 0.0
0.0312415296139 0.544429441506 -0.002025
0.00822092027436 0.530789218858 -0.002025
0.00823129975921 0.530728940542 0.0
0.0195026976624 0.540319976495 -0.002025
0.0122664623282 0.533427702858 -0.002025
0.0123900153396 0.53304955484 0.0
0.0193230922421 0.540273132076 0.0
0.0167219940152 0.535983347511 -0.002025
0.016585679876 0.535891464729 0.0
0.0240705766417 0.540326638804 0.0
0.0241553345835 0.540323662259 -0.002025
0.00822092027436 0.526049645905 -0.002025
0.00822092027436 0.526049645905 0.0
0.00411046013718 0.518940286476 0.0
0.00822092027436 0.521310072953 -0.002025
0.00411046013718 0.518940286476 -0.002025
0.00822092027436 0.521310072953 0.0
0.0 0.507091354095 -0.002025
0.0 0.507091354095 0.0
0.0 0.502351781142 -0.002025
0.0 0.502351781142 0.0
0.00411046013718 0.514200713524 0.0
0.00411046013718 0.514200713524 -0.0010125
0.00411046013718 0.514200713524 -0.002025
0.00411046013718 0.509461140571 0.0
0.00411046013718 0.509461140571 -0.002025
0.00822092027436 0.5165705 -0.002025
0.0358727183141 0.54443142587 0.0
0.0359656596343 0.544429441506 -0.002025
0.040593574983 0.54443142587 0.0
0.0406897896546 0.544429441506 -0.002025
0.0453144316519 0.54443142587 0.0
0.0454139196749 0.544429441506 -0.002025
0.0 0.488157556731 0.0
0.0 0.483871215861 0.0
0.0 0.4805 0.0
0.0 0.483871215861 -0.002025
0.0 0.4805 -0.002025
0.0594770016587 0.552641 0.0
0.0595863097359 0.552641 -0.002025
0.0641978583277 0.552641 0.0
0.0643104397562 0.552641 -0.002025
0.0689187149966 0.552641 0.0
0.0690345697765 0.552641 -0.002025
0.0571165733243 0.548536212935 0.0
0.0572242447257 0.548535220753 -0.002025
0.0500352883209 0.54443142587 0.0
0.0501380496952 0.544429441506 -0.002025
0.0547561449898 0.54443142587 0.0
0.0548621797155 0.544429441506 -0.002025
0.144686201113 0.545533485902 0.0
0.144009766127 0.545025866879 -0.002025
0.14797771068 0.542636862962 0.0
0.147902213018 0.542585716724 -0.002025
0.152 0.540228688041 0.0
0.152 0.540227989044 -0.002025
0.135010708362 0.552641 0.0
0.13042043962 0.552641 -0.002025
0.12571021981 0.552641 -0.002025
0.137577575001 0.548891152172 -0.002025
0.139854894013 0.546201521641 -0.002025
0.130289851693 0.552641 0.0
0.132992379009 0.548884580307 -0.002025
0.137371130714 0.548536216561 0.0
0.13995035789 0.544702514918 0.0
0.0736395716655 0.552641 0.0
0.0737586997968 0.552641 -0.002025
0.125568995024 0.552641 0.0
0.121 0.552641 -0.002025
0.120848138355 0.552641 0.0
0.0783604283345 0.552641 0.0
0.0287914333107 0.540326638804 0.0
0.0288794646038 0.540323662259 -0.002025
0.0335122899796 0.540326638804 0.0
0.0336035946241 0.540323662259 -0.002025
0.0123313804115 0.528419432381 -0.002025
0.0123313804115 0.528419432381 0.0
0.0217986914832 0.536696682682 -0.002025
0.0163754882953 0.530654498573 -0.002025
0.0163597739958 0.530633202805 0.0
0.0216779952827 0.536541395979 0.0
0.0200521521602 0.532976625685 -0.002025
0.0199834289429 0.532722259717 0.0
0.0264310049762 0.536221851739 0.0
0.0265271543348 0.536279542554 -0.002025
0.0123313804115 0.523679859429 -0.002025
0.0123313804115 0.518940286476 -0.002025
0.0123313804115 0.523679859429 0.0
0.00822092027436 0.5165705 0.0
0.0123313804115 0.518940286476 0.0
0.0 0.488157556731 -0.002025
0.0 0.49761220819 0.0
0.0 0.492872636597 0.0
0.0021690425596 0.494656742706 -0.0010125
0.0 0.49761220819 -0.002025
0.0 0.492872636597 -0.002025
0.00411046013718 0.504721567619 -0.002025
0.00411046013718 0.504721567619 0.0
0.00411046013718 0.499981994666 -0.002025
0.00397890165359 0.499670190075 -0.0010125
0.00411046013718 0.499981994666 0.0
0.00822092027436 0.511830927047 0.0
0.00822092027436 0.511830927047 -0.002025
0.00822092027436 0.507091354095 0.0
0.00822092027436 0.507091354095 -0.002025
0.0123313804115 0.514200713524 -0.002025
0.0382331466485 0.540326638804 0.0
0.0383277246444 0.540323662259 -0.002025
0.0429540033175 0.540326638804 0.0
0.0430518546647 0.540323662259 -0.002025
0.0476748599864 0.540326638804 0.0
0.0477759846851 0.540323662259 -0.002025
0.00358330541074 0.490448959055 0.0
0.00299920374473 0.48645311717 0.0
0.0029773344929 0.486348130032 -0.002025
0.00301590676507 0.483020337691 0.0
0.00293640644896 0.4805 0.0
0.00574447624759 0.484503205838 0.0
0.00570822739252 0.484327754113 -0.0010125
0.00301993190233 0.483029043936 -0.002025
0.00293640644896 0.4805 -0.002025
0.00574149095343 0.484468867962 -0.002025
0.0784828298171 0.552641 -0.002025
0.0830812850034 0.552641 0.0
0.0832069598375 0.552641 -0.002025
0.0618374299932 0.548536212935 0.0
0.061948374746 0.548535220753 -0.002025
0.0665582866621 0.548536212935 0.0
0.0666725047663 0.548535220753 -0.002025
0.0712791433311 0.548536212935 0.0
0.0713966347867 0.548535220753 -0.002025
0.0594770016587 0.54443142587 0.0
0.0595863097359 0.544429441506 -0.002025
0.0525001147054 0.540323662259 -0.002025
0.0523957166553 0.540326638804 0.0
0.0571165733243 0.540326638804 0.0
0.0572242447257 0.540323662259 -0.002025
0.116127281686 0.552641 0.0
0.11627586998 0.552641 -0.002025
0.13997943118 0.542410794759 -0.002025
0.143004611966 0.540845035525 0.0
0.143789302877 0.540232959616 -0.002025
0.147889760174 0.537859264983 0.0
0.147889762033 0.537858569053 -0.002025
0.152 0.535489841926 0.0
0.152 0.535489149063 -0.002025
0.132650280027 0.548536212935 0.0
0.12829145956 0.549375057765 -0.002025
0.12433657695 0.549805082922 -0.002025
0.135865199825 0.544541948029 -0.002025
0.130707489486 0.545346906745 -0.002025
0.127929423358 0.548536212935 0.0
0.135088022694 0.544495923106 0.0
0.136816310796 0.5406025022 -0.002025
0.137651096199 0.540476427018 0.0
0.076 0.548536212935 0.0
0.076120764807 0.548535220753 -0.002025
0.123208566689 0.548536212935 0.0
0.117839032065 0.549064601646 -0.002025
0.121 0.54791757265 -0.002025
0.0878021416723 0.552641 0.0
0.0879310898578 0.552641 -0.002025
0.111406425017 0.552641 0.0
0.111551739959 0.552641 -0.002025
[...]
POINT_DATA 17773
VECTORS FID_FibreOrientation double
0.0329965142625 0.0508466681277 -0.313876273639
0.0329974503761 0.0512214995691 -0.313980882441
0.0326947257724 0.0517971476905 -0.314574122304
0.0326201354235 0.0509636089147 -0.314624444433
0.0330163407411 0.0504815653891 -0.313731051998
0.0332237012127 0.0515162661079 -0.313678174603
0.0337245091525 0.0499119171513 -0.312828241108
0.0337216239189 0.0510095481815 -0.312880637918
0.0316232922659 0.0522477013829 -0.315668713234
0.0314985993967 0.051016888744 -0.315877355535
0.0340204287327 0.0503061744227 -0.310476799824
0.033945196638 0.0491499886613 -0.310472347474
0.0324796849487 0.0517683894385 -0.313938657235
0.03205440311 0.0504597131987 -0.31424319871
0.0332239730622 0.0496864743544 -0.312015727994
0.0333758520418 0.0509914004848 -0.312022453417
0.033789224145 0.0484606674714 -0.307917576855
0.0340243732574 0.0494608538934 -0.308024773125
0.0235142899589 0.0526036636894 -0.317859900051
0.0285193791831 0.0494617372015 -0.312899779258
0.0333008671525 0.0490068524491 -0.309695953198
0.0295443026765 0.0506908806485 -0.315985222897
0.0306028705652 0.0515504936226 -0.314428294292
0.033406889432 0.0500253742046 -0.309367477319
0.0321854851939 0.0509863376017 -0.311159546704
0.0325327539573 0.0493720018249 -0.311090015854
0.0328790451974 0.0497805674837 -0.310388171301
0.0296230065985 0.0435890378911 -0.316987004921
0.0381855281151 0.0461612242409 -0.29793894255
0.0877205449427 0.0487108167662 -0.295080507964
0.0885215970465 0.0496228352842 -0.294896948061
0.142973688032 -0.021935934428 -0.203249733953
0.17593608072 0.0517409213718 -0.178206852201
0.256869205559 0.00900390905168 -0.0942936785518
0.33224008306 0.0821656896374 -0.083988235239
0.0337530077101 0.0477113119224 -0.305847483318
0.0339389496747 0.0486693811929 -0.305886900368
0.0332401399236 0.0482316737333 -0.307413712475
0.033236173285 0.0492045387098 -0.307118568057
0.0296470884297 0.0501911902454 -0.315896332689
0.0353206325317 0.0525073511199 -0.324112164049
0.0323236320009 0.0490127982154 -0.308694666727
0.032350659578 0.049301874439 -0.309074796438
0.0326357869374 0.0508600658083 -0.310391614319
0.0321430150601 0.0499193550723 -0.308568768176
0.0888754678039 0.0476350014494 -0.31813741391
0.0730219391046 0.0649387104669 -0.284453009832
0.0336538745254 0.0467831237978 -0.303824466758
0.033782193076 0.047669756943 -0.303903289684
0.0337829115953 0.0456362077296 -0.301620732927
0.0338161020401 0.0466144669072 -0.301745578222
0.313667728384 0.0305833902401 0.0189938440484
0.352633968764 0.0772157556286 0.023720856212
0.32931111436 0.0420613694485 0.0560329566365
0.343113820716 0.0694137650044 0.0577357513276
0.332726918333 0.0469997128418 0.050665738163
0.334110959018 0.0608202734874 0.0508639231659
0.329598797611 0.0460140658489 0.0400706235219
0.330266927196 0.0557629490694 0.0390452731113
0.329497770178 0.0492791546962 0.0280379826093
0.327948958257 0.0522833479285 0.0271297518341
0.088323171656 0.0492977256251 -0.296937700304
0.0884337245569 0.0505936847347 -0.296794614808
0.0895009088968 0.0486076024027 -0.298332765468
0.0907787192758 0.0507964130373 -0.298891246954
0.090891687033 0.0498909716059 -0.298057776071
0.0916862484012 0.0516438560187 -0.298213291755
0.0892357391937 0.0524960207442 -0.300461654784
0.0887188686908 0.0510973162269 -0.299803418888
0.201364227387 0.0497794303383 -0.290819898345
0.264415762705 0.0645026307832 -0.247707320338
0.296762837772 0.0504473765018 -0.124988647266
0.349092329205 0.0647019947476 -0.105958155964
0.0329166647969 0.0474735511666 -0.305120608817
0.0329119138466 0.0484047342573 -0.304996591561
0.0374462229249 0.0458246334623 -0.314229932311
0.0318877322226 0.0483210497326 -0.306639745686
0.0319603626361 0.0493271235731 -0.306333144382
0.0481544643992 0.0503960852715 -0.315748998442
0.0308586718201 0.0495111649859 -0.307825594983
0.0384138685777 0.050176307323 -0.303611966713
0.0310878254388 0.0503081555878 -0.307108463075
0.0312092496795 0.0497779624581 -0.30741079897
0.134056474 0.0596236897232 -0.313241576486
0.150343732592 0.0540229757326 -0.258797322582
0.0329668440837 0.0465886088635 -0.30297161618
0.0329075124387 0.0475322385459 -0.302899515418
0.0342449664571 0.0454575479073 -0.299103793869
0.0331547472838 0.0454553817913 -0.300479778038
0.0342518478651 0.0443782684095 -0.299074476439
0.0330910597074 0.0465406729088 -0.300387270139
0.0351381120182 0.0444694664163 -0.296419574535
0.0351822104254 0.0432934937707 -0.296302410516
0.0360432100235 0.0435439407311 -0.293806126637
0.0363191897031 0.0426542184335 -0.293775535834
0.321446286482 0.04510317745 -0.0244056439813
0.348530453344 0.0637702231551 -0.0187149483477
0.328938201091 0.0462125897993 0.0153941742586
0.338106164552 0.0603210708797 0.0170241452685
0.327422948894 0.0459413721136 0.0279074798176
0.332382354959 0.0577508502346 0.0265394272636
0.326956737621 0.0491859766793 0.0221520092311
0.325904979635 0.0504236369997 0.021455751952
0.3297818114 0.0472328925096 0.02382120404
0.329182980282 0.0538885879828 0.0226156904732
0.328351215157 0.0478582818695 0.0187704290529
0.327113033039 0.0510890058641 0.0184231569171
0.0898942332905 0.0497574987513 -0.300631778085
0.0918367004039 0.0513769561555 -0.301587269325
0.0914035728495 0.0495146380269 -0.300951104734
0.0920027554973 0.0509639110057 -0.301035916676
0.0923804743146 0.0500526870007 -0.30223174748
0.0922266604624 0.0512307074069 -0.301727733138
0.0925848505925 0.0540139739826 -0.303374182235
0.0929312006112 0.0527399997611 -0.304125717694
0.098809502844 0.0559554114291 -0.305408754771
0.0918806940107 0.0528680200157 -0.302401006621
0.0919545721098 0.0514434619866 -0.303913869307
0.25261397487 0.0574803508446 -0.215252158762
0.32446822731 0.065090448511 -0.17510764093
0.311441505654 0.0572544502793 -0.0920167077017
0.346136113968 0.0595188924441 -0.0769903106278
0.0317021796421 0.0476443580976 -0.303985451903
0.0318142343194 0.0486324502452 -0.303932114147
0.0670576874897 0.0538873444981 -0.263966544691
0.0313707294633 0.0473861171838 -0.30525584225
0.0315699186833 0.0489836371896 -0.304713263639
0.0730971992309 0.0533705915413 -0.316355066993
0.042631661223 0.0467320848749 -0.300100006568
0.0364826265242 0.0523932794147 -0.311825131915
0.190637406658 0.0560475382504 -0.287096794424
0.257440432562 0.0545247258651 -0.235011692439
0.0316727521924 0.0467533190245 -0.302000874615
0.0316127247208 0.0476962457319 -0.301776347522
0.0338969808107 0.0454643488671 -0.297613424159
0.0319437715369 0.0451342471911 -0.29896847515
0.0339595790362 0.0442724508602 -0.297705663216
0.0319569892158 0.0466400671218 -0.298904428878
0.0373598224635 0.0421583398075 -0.291527451488
0.0372208922797 0.0430523224617 -0.291540744667
0.0381741826808 0.0418851510416 -0.289489503788
0.0380836262507 0.04277050713 -0.289552816007
0.0348514424663 0.0445163024079 -0.294790797554
0.0348987683111 0.0439231917926 -0.29489013442
0.0350265348665 0.0434100466311 -0.294942040103
0.0358627680576 0.0436787864671 -0.292251845649
0.0360930182276 0.0427140559101 -0.292375374519
0.033265218163 0.0440316222419 -0.296028685575
0.325011170543 0.0511498844862 -0.0268609776249
0.342882391665 0.0569672040341 -0.0216617428479
0.32470496442 0.0489312297673 0.00527650706682
0.336551747994 0.0562743459357 0.00363281245543
0.329499099956 0.0476692395605 0.012981022078
0.331924140229 0.0536710738107 0.0108706765815
0.0399343938077 0.042032301006 -0.28134119273
0.0400146441779 0.0409703553783 -0.276713689677
0.0394365709372 0.0395545284223 -0.274194697199
0.0401802542154 0.0389795115011 -0.27659022657
0.0393152088896 0.038427283015 -0.273980405569
0.324338478552 0.048404550642 0.019519703072
0.323722592597 0.0489952758176 0.0188863817487
0.321814545515 0.0473194779408 0.0186184975007
0.321488882181 0.0476978355826 0.0180149415017
0.3193884916 0.0460312907892 0.0186027813999
0.319218089008 0.0464228661379 0.0180044370677
0.326315400651 0.0474240368954 0.0174483379645
0.325761928143 0.0494468404024 0.017023471807
0.328772146506 0.0475455429553 0.0129020980822
0.329366335261 0.051549260724 0.0119600854458
0.327659312295 0.0470243139107 0.0117393018043
0.327542538841 0.0500523643091 0.0116026567734
0.0916761467399 0.051354411572 -0.303528416429
0.092168015062 0.0515386453663 -0.303826630335
0.0912659178363 0.050986878518 -0.302763714318
0.0911361463092 0.0506414244974 -0.302353185195
0.0905193307644 0.0497627064534 -0.30348672896
0.0899042533553 0.0497709165918 -0.30297613267
0.0983943479138 0.0548869213303 -0.304730347741
0.105057735754 0.0569180785579 -0.301642199896
0.114094313696 0.0566373139494 -0.27415021178
0.0948522237039 0.0540980845885 -0.306341206785
0.0923721406658 0.0529239557922 -0.305115765666
0.110854630866 0.0537129350382 -0.300653906052
0.094105577461 0.0552863391054 -0.306068100831
0.0938192931982 0.0540104216862 -0.306268423794
0.0920742218932 0.0535407447088 -0.304436790528
0.317073013702 0.0446090725014 0.0188250162378
0.316923752659 0.0451047305756 0.0182212925677
0.110241838123 0.0383731985667 -0.285514234121
0.0314732579759 0.00908442942035 -0.301402212124
0.0245212089766 -0.0253671860417 -0.279660188909
0.314889214023 0.0430782168557 0.0187304341821
0.287558730916 0.0610770374419 -0.148676736193
0.340353220301 0.0586690935301 -0.123820865546
0.318473296858 0.0570349094361 -0.0619080445675
0.34150889114 0.0558446702818 -0.0514824366859
0.0312924217122 0.0488253900375 -0.303350702769
0.031017059003 0.0499933082828 -0.303511317098
0.137611843975 0.0496742102584 -0.266848512681
0.0345413135401 0.0486394701149 -0.304925438581
0.0335533896083 0.0520275866302 -0.30157920728
0.0972686876192 0.0482220284845 -0.32954750514
0.0906419148187 0.0537302377391 -0.294799917027
0.073382727031 0.0486039076913 -0.330847648818
0.223287456119 0.0528630519891 -0.208016060489
0.293459752253 0.05899785891 -0.163082398284
0.030367178236 0.0470746966067 -0.300495358645
0.0325837807079 0.0445422420619 -0.297139239892
0.0292340483598 0.048679137724 -0.300535031949
0.03297469899 0.0452567483876 -0.295966854845
0.0330336924212 0.0463271968883 -0.299071206507
0.0404919551524 0.040038492675 -0.281202219967
0.0388781782724 0.0425746467353 -0.287564391306
0.0394774877655 0.0423995932168 -0.285107391845
0.0392675995737 0.0418848646223 -0.285534838282
0.039201735257 0.0415880350552 -0.287550183295
0.0400996255268 0.0410483589553 -0.285028413744
0.0372737314339 0.0422265992831 -0.290074316898
0.0369874112615 0.043128146467 -0.289943111875
0.0383466939124 0.0418201074379 -0.287921247449
0.0382157261227 0.042253924834 -0.287667727634
0.0380000893755 0.0427460897911 -0.287714506675
0.0345046394825 0.0442072796895 -0.293008545708
0.0345120367889 0.0430630473085 -0.293229654608
0.0353820979397 0.0434247358054 -0.290685588474
0.0357151071525 0.0424359366691 -0.29092136322
0.0329558743259 0.0425314646741 -0.293669060753
0.320527599204 0.051552451736 -0.0145180994958
0.337412361408 0.05480832267 -0.016311000518
0.328854592611 0.0490252182578 0.00241733166374
0.333527571023 0.0527778082237 -0.000740599651712
0.329059692263 0.0485193166057 0.0063986382992
0.330721996493 0.0510948396909 0.00479444806951
0.0392963485803 0.0419879550585 -0.282277670286
0.0394963643084 0.0413555166393 -0.278842104186
0.0396590803061 0.0392537393412 -0.278637851075
0.0390755376437 0.0403742046401 -0.275241363062
0.0388885387912 0.0395666468231 -0.273475833221
0.0385446126805 0.040710314337 -0.276467662588
0.0385412687567 0.0396419585829 -0.276290748819
0.0393978239774 0.0385509487195 -0.275474121437
0.0387061649718 0.0381561061215 -0.273473438402
0.0386076751596 0.0386182514972 -0.276535822598
0.314618584443 0.0437041910156 0.0181123963752
0.312892488399 0.0414477873206 0.0176684456497
0.312295321875 0.0421966282551 0.0170121981674
0.324326144592 0.0465566970397 0.016759809525
0.324207707771 0.0480366758954 0.0163709237011
0.322433559716 0.0454481128245 0.0167183374014
0.322588285744 0.0467003805338 0.0163058139896
0.320800142917 0.0441969149999 0.0168305940573
0.320941608764 0.0453579981003 0.0164502063342
0.326242638531 0.0463002886317 0.0122501210838
0.326335549281 0.0486009892536 0.0120209606301
0.328966050309 0.0499077856821 0.00629418031144
0.328551507961 0.0475586528982 0.00635793478189
0.327608965677 0.0470161457125 0.00790884227582
0.327963246156 0.0487299945979 0.00763198824632
-0.0417702010865 0.0079476743638 -0.305115965932
0.0035761931474 0.0165343060636 -0.364627245969
0.0900484476618 0.0524486698489 -0.303243948961
0.0897450696546 0.0525460252683 -0.302340434532
0.0890967546002 0.0512080578651 -0.301769626192
0.0887001686104 0.0506765319657 -0.301549602832
0.0879968517713 0.0500505072816 -0.301447870025
0.0869788201312 0.0489130776818 -0.302493048607
0.0860420715284 0.0482806758705 -0.3021139227
0.09542126721 0.0555142624616 -0.306217147641
0.0875694567776 0.0541598941644 -0.298750310733
0.0717356226699 0.0634340035659 -0.293381046166
0.090057172105 0.0540565745358 -0.304192359543
0.0831894338684 0.0564483997847 -0.30223208193
0.0827696395012 0.0524665027657 -0.303850051561
0.0896928175399 0.05616228992 -0.305411259521
0.0868494170023 0.0540378072751 -0.300007048519
0.087115893673 0.0552143228862 -0.301413737292
0.319248225805 0.0428384438075 0.0168526760159
0.319293131961 0.0439484479063 0.016428267498
0.0586409334939 0.0539643070074 -0.310441266699
0.0405787626113 0.0128445495085 -0.354779627411
0.0469480341631 0.08341239113 -0.346408332509
0.311054321294 0.0395825987291 0.0138920609967
0.30969129745 0.0401302380001 0.0135457220136
0.191847678401 0.0945498614762 -0.217884448105
0.0972673768267 0.0126904287506 -0.279372014999
0.243645376342 0.0199787427883 -0.192213893522
0.294212207897 0.025974578053 -0.0750212296843
0.302410946166 0.0802844240764 -0.170071998975
0.310203939745 0.0382447349192 0.00539796024612
0.3070035912 0.0380244987653 0.00515592638164
0.313499053283 0.0488426866499 -0.0693891239612
0.311444664871 0.0394417901814 -0.0172527512402
0.301656601374 0.0336651505443 -0.0174748645782
0.0557547802034 0.0891863968085 -0.342967614005
0.318025987881 0.0413916177059 0.0162081705751
0.300310392309 0.0588530880772 -0.0927969493386
0.320986520414 0.0532737820607 -0.0388059831142
0.332669969085 0.0560649344401 -0.0761818809062
0.336232936027 0.0559827088165 -0.0379152610076
0.0350551847126 0.0471906569248 -0.297628138117
0.0303274128461 0.0509858892382 -0.306347103896
0.186729163787 0.0520268356053 -0.2452825179
0.0990200907095 0.0539373326741 -0.277871610263
0.0705917071453 0.0454876026207 -0.319805403007
0.14917124062 0.0533361463643 -0.290414463714
0.271812591818 0.0584822184677 -0.145041834322
0.315369294842 0.0562671000447 -0.121320819162
0.0434233447684 0.0472327249085 -0.29442541383
0.0368549747585 0.0436225431749 -0.292504115151
0.0374223455375 0.0492455445297 -0.303453705518
0.0328619513693 0.0437630913328 -0.29322139628
0.0390406533222 0.0443699513098 -0.300632532103
0.0395672164781 0.040384369368 -0.282383864545
0.0387761902605 0.0424380225938 -0.285395462972
0.039067439488 0.0413736333099 -0.285585389197
0.0369244869311 0.0420390092289 -0.288597971803
0.0366965365725 0.0429911291851 -0.288285260749
0.0377572592894 0.0417306256945 -0.286486586502
0.0375431833995 0.0425163383645 -0.286051914714
0.0793869991226 0.0472930140696 -0.282335788747
0.0338727249417 0.0428495838782 -0.292482222994
0.0336826098885 0.0429015235694 -0.291744826691
0.0355773103668 0.0436890516006 -0.289236313421
0.0356317944773 0.04265273032 -0.289621197227
0.0347395916654 0.0425125525268 -0.293532192315
0.0797522278435 0.0497948289861 -0.273037419659
0.327603835972 0.0502718396725 -0.0123307528759
0.333411180118 0.053251805102 -0.0127791832594
0.328774227398 0.0495074982386 -0.00141453230971
0.331020421073 0.0513586708723 -0.00179008949025
0.328708824707 0.0488332548279 0.00290097193857
0.329662011114 0.0500126462776 0.00270396324943
0.0385992337016 0.0413409147749 -0.279412701971
0.0379547511578 0.0420899577978 -0.283128891897
0.0385912694714 0.0395162858601 -0.279602062643
0.0375616490822 0.0394198353025 -0.272566483338
0.0377864948147 0.0406053386231 -0.276196090586
0.0373746750957 0.0385096116417 -0.276300449753
0.0373174726087 0.0377783177446 -0.272960640308
0.317634473477 0.0424215048973 0.0157870069489
0.317093391618 0.0401892127943 0.0140003591579
0.315808598146 0.0404911228457 0.0135129265344
0.325016255978 0.0453825834923 0.0128608521727
0.325204394048 0.0472435238583 0.0125540845638
0.323862900041 0.0443211655547 0.0134520225412
0.324133278081 0.0458940767426 0.0131482093991
0.322962607639 0.0431773323926 0.0139667040072
0.323132743274 0.0444875417786 0.0136602907205
0.326778439628 0.0461252998555 0.00890753383677
0.32723788138 0.047572318189 0.00876431093363
0.328988269271 0.048934780337 0.00480856302853
0.32832232313 0.0481141622976 0.00493755653159
0.327988116596 0.0473230604621 0.00638634986639
0.328635961839 0.0479708249046 0.00628286051443
0.114379574015 0.00900918527705 -0.314896509169
0.0700302389103 0.0293095319186 -0.308628228304
0.0837357252676 0.0549031998789 -0.297730976407
0.0858616767241 0.0527290514779 -0.299096885579
0.0859337508868 0.0542996307879 -0.299702684056
0.0860087650905 0.0523590554962 -0.299554751931
0.0854282469504 0.0510329067225 -0.298940225741
0.0850859833638 0.0501747028419 -0.299571257676
0.0840184459586 0.0492535795325 -0.299490132508
0.0829609033452 0.0480134959785 -0.30040280359
0.0819500360266 0.0469485424791 -0.300065168675
0.0817194589238 0.0586691257128 -0.305535590946
0.0696072291563 0.0686836301025 -0.304346630367
0.0817924526926 0.056832926754 -0.299522221616
0.0741374062577 0.0625489532376 -0.300520533639
0.0629358331543 0.0694993436616 -0.310269565906
0.0815060326479 0.0592937089044 -0.30134405668
0.0775611925932 0.058912783636 -0.296292135247
0.0818482540018 0.0576186290016 -0.298195444373
0.322182502122 0.0419723974627 0.0141974893596
0.3222090705 0.0429718680979 0.0138928719356
0.0936714706772 0.0576176979156 -0.298249747008
0.0992882333246 0.0781188387758 -0.362434572511
0.0577040123755 0.0803785202855 -0.31864016359
0.316479581385 0.0392189379224 0.0093656937005
0.314183809736 0.037983226671 0.00884712448173
0.309159107985 0.0540669863521 -0.120109126804
0.242275172692 0.0300537579303 -0.149516685747
0.291273661672 0.0420693174782 -0.0832064679983
0.311795059854 0.0348525469734 0.000118165513147
0.296101741264 0.0237820893871 -0.0549828595377
0.306414097352 0.0288209863378 -0.0176915330722
0.316580726302 0.0385697621861 -0.0431747189815
0.31651933121 0.038896324256 0.000920569012848
0.315582815693 0.0406308980197 -0.0144775030039
0.135800390764 0.0445659383518 -0.312581589223
0.32169259776 0.0407657469483 0.0138564423598
0.306751556337 0.0537776188423 -0.0656433420523
0.325277013634 0.0524738035696 -0.0240306600247
0.335313498204 0.0578248488098 -0.0634081200879
0.333134815348 0.0541539125802 -0.0244350228714
0.197512686574 0.0542870414349 -0.253866201476
0.261935401272 0.0548373361755 -0.17917067336
0.0785527351128 0.0440705499582 -0.274759683752
0.0823581077237 0.0427672014605 -0.308924942198
0.25653023936 0.0514083268848 -0.183505791953
0.142254311501 0.0501664213891 -0.292197635589
0.213416325204 0.0564219399015 -0.21497737882
0.286414437817 0.0554375707641 -0.104916137487
0.328102340786 0.061272248763 -0.0950776812923
0.317189009207 0.0539541815047 -0.0407925043824
0.0567747181833 0.045409829442 -0.279335153044
0.0687561298938 0.0477071620496 -0.305926593851
0.0358496936112 0.0419238311094 -0.297954064579
0.0575869960704 0.0466327210556 -0.296358998215
0.0379661613956 0.0409751154493 -0.28369862952
0.03658103239 0.041818355451 -0.287086395982
0.0367281778876 0.0430471466693 -0.287361987245
0.0373254692319 0.0420777484543 -0.28594128004
0.0367648789822 0.043093763179 -0.285746180246
0.0374580077812 0.0449365131009 -0.289898092747
0.0345052731328 0.0436271472546 -0.286538086868
0.212484820034 0.0536588787751 -0.253707703546
0.198223845852 0.0497994899771 -0.230966406481
0.0365651162325 0.0424437155891 -0.294268229164
0.0358343194532 0.0424539262882 -0.289164142275