# vtk DataFile Version 2.0
Unstructured Grid Example
ASCII
DATASET UNSTRUCTURED_GRID
POINTS 17773 double
0.0 0.552641 -0.002025
0.0 0.552641 0.0
0.00334435244261 0.552641 0.0
0.00337460188434 0.552641 -0.002025
0.00246240520633 0.550417197387 -0.002025
0.00242397655929 0.550466372258 0.0
0.0 0.549269784139 -0.002025
0.0 0.549269784139 0.0
0.00758462834993 0.552641 0.0
0.0076544207894 0.552641 -0.002025
0.0 0.544983443269 0.0
0.0 0.544983443269 -0.002025
0.00559627389327 0.549844329796 0.0
0.00563968870962 0.550022014328 -0.002025
0.00292151668933 0.547233850137 -0.002025
0.00288601599241 0.547326240413 0.0
0.0 0.540268363403 -0.002025
0.0 0.540268363403 0.0
0.0123450188921 0.552641 -0.002025
0.0122684469336 0.552641 0.0
0.00383020081638 0.54308507632 -0.002025
0.00996441344481 0.548773591126 -0.002025
0.00986538540686 0.548863234036 0.0
0.00382110121205 0.542638903767 0.0
0.00707604096378 0.545705565416 0.0
0.00714191399664 0.545310752684 -0.002025
0.00544411311188 0.544187275083 -0.00107061318492
0.0169892916383 0.552641 0.0
0.017069139553 0.552641 -0.002025
0.152 0.552641 0.0
0.152 0.552641 -0.002025
0.0217101483073 0.552641 0.0
0.0217932695733 0.552641 -0.002025
0.0264310049762 0.552641 0.0
0.0265173995936 0.552641 -0.002025
0.0 0.53552879181 -0.002025
0.0 0.53552879181 0.0
0.00410188811675 0.538296282087 -0.002025
0.0041104597249 0.537898577606 0.0
0.0145663954226 0.548278651831 -0.002025
0.014628869286 0.548536216561 0.0
0.00791694556994 0.540707477012 -0.002025
0.011982552655 0.543396376513 -0.002025
0.0119528582293 0.544642208235 0.0
0.00880145067137 0.540580831971 0.0
0.0193497199728 0.548536212935 0.0
0.0194312045631 0.548535220753 -0.002025
0.0 0.530789218858 -0.002025
0.0 0.530789218858 0.0
0.0 0.526049645905 -0.002025
0.0 0.526049645905 0.0
0.0311518616451 0.552641 0.0
0.0312415296139 0.552641 -0.002025
0.0358727183141 0.552641 0.0
0.0359656596343 0.552641 -0.002025
0.040593574983 0.552641 0.0
0.0406897896546 0.552641 -0.002025
0.0453144316519 0.552641 0.0
0.0454139196749 0.552641 -0.002025
0.0500352883209 0.552641 0.0
0.0501380496952 0.552641 -0.002025
0.148655647557 0.552641 0.0
0.148579185907 0.552641 -0.002025
0.149551483278 0.550197407183 0.0
0.149466931796 0.550036433408 -0.002025
0.152 0.549252154155 0.0
0.152 0.549251829683 -0.002025
0.144336732913 0.552641 -0.002025
0.14441537165 0.552641 0.0
0.0240705766417 0.548536212935 0.0
0.0241553345835 0.548535220753 -0.002025
0.0287914333107 0.548536212935 0.0
0.0288794646038 0.548535220753 -0.002025
0.00411046013718 0.533159005334 -0.002025
0.00410705938548 0.533141134398 0.0
0.0170547713826 0.544509442631 -0.002025
0.00814879907732 0.535740528988 -0.002025
0.00826722556745 0.535437676967 0.0
0.0169892914762 0.544431429496 0.0
0.0120747300683 0.538230876948 -0.002025
0.0154940321654 0.540545169104 -0.002025
0.0142219159999 0.540673657967 0.0
0.0120403699005 0.537039273033 0.0
0.0217101483073 0.54443142587 0.0
0.0217932695733 0.544429441506 -0.002025
0.00411046013718 0.528419432381 -0.002025
0.00411046013718 0.528419432381 0.0
0.0 0.521310072953 0.0
0.00411046013718 0.523679859429 -0.002025
0.0 0.521310072953 -0.002025
0.00411046013718 0.523679859429 0.0
0.0 0.5165705 0.0
0.0 0.5165705 -0.002025
0.0 0.511830927047 0.0
0.0 0.511830927047 -0.002025
0.0335122899796 0.548536212935 0.0
0.0336035946241 0.548535220753 -0.002025
0.0382331466485 0.548536212935 0.0
0.0383277246444 0.548535220753 -0.002025
0.0429540033175 0.548536212935 0.0
0.0430518546647 0.548535220753 -0.002025
0.0547561449898 0.552641 0.0
0.0548621797155 0.552641 -0.002025
0.0476748599864 0.548536212935 0.0
0.0477759846851 0.548535220753 -0.002025
0.0523957166553 0.548536212935 0.0
0.0525001147054 0.548535220753 -0.002025
0.146357178682 0.549891004544 0.0
0.146148624604 0.549779722776 -0.002025
0.14916099575 0.547236811334 0.0
0.149090740912 0.547076343085 -0.002025
0.152 0.544944150334 0.0
0.152 0.544943444403 -0.002025
0.139798133518 0.552641 -0.002025
0.141913035462 0.549371602036 -0.002025
0.135130633267 0.552641 -0.002025
0.139731553066 0.552641 0.0
0.142083461247 0.548938503892 0.0
0.0264310049762 0.54443142587 0.0
0.0265173995936 0.544429441506 -0.002025
0.0311518616451 0.54443142587 0.0
0.0312415296139 0.544429441506 -0.002025
0.00822092027436 0.530789218858 -0.002025
0.00823129975921 0.530728940542 0.0
0.0195026976624 0.540319976495 -0.002025
0.0122664623282 0.533427702858 -0.002025
0.0123900153396 0.53304955484 0.0
0.0193230922421 0.540273132076 0.0
0.0167219940152 0.535983347511 -0.002025
0.016585679876 0.535891464729 0.0
0.0240705766417 0.540326638804 0.0
0.0241553345835 0.540323662259 -0.002025
0.00822092027436 0.526049645905 -0.002025
0.00822092027436 0.526049645905 0.0
0.00411046013718 0.518940286476 0.0
0.00822092027436 0.521310072953 -0.002025
0.00411046013718 0.518940286476 -0.002025
0.00822092027436 0.521310072953 0.0
0.0 0.507091354095 -0.002025
0.0 0.507091354095 0.0
0.0 0.502351781142 -0.002025
0.0 0.502351781142 0.0
0.00411046013718 0.514200713524 0.0
0.00411046013718 0.514200713524 -0.0010125
0.00411046013718 0.514200713524 -0.002025
0.00411046013718 0.509461140571 0.0
0.00411046013718 0.509461140571 -0.002025
0.00822092027436 0.5165705 -0.002025
0.0358727183141 0.54443142587 0.0
0.0359656596343 0.544429441506 -0.002025
0.040593574983 0.54443142587 0.0
0.0406897896546 0.544429441506 -0.002025
0.0453144316519 0.54443142587 0.0
0.0454139196749 0.544429441506 -0.002025
0.0 0.488157556731 0.0
0.0 0.483871215861 0.0
0.0 0.4805 0.0
0.0 0.483871215861 -0.002025
0.0 0.4805 -0.002025
0.0594770016587 0.552641 0.0
0.0595863097359 0.552641 -0.002025
0.0641978583277 0.552641 0.0
0.0643104397562 0.552641 -0.002025
0.0689187149966 0.552641 0.0
0.0690345697765 0.552641 -0.002025
0.0571165733243 0.548536212935 0.0
0.0572242447257 0.548535220753 -0.002025
0.0500352883209 0.54443142587 0.0
0.0501380496952 0.544429441506 -0.002025
0.0547561449898 0.54443142587 0.0
0.0548621797155 0.544429441506 -0.002025
0.144686201113 0.545533485902 0.0
0.144009766127 0.545025866879 -0.002025
0.14797771068 0.542636862962 0.0
0.147902213018 0.542585716724 -0.002025
0.152 0.540228688041 0.0
0.152 0.540227989044 -0.002025
0.135010708362 0.552641 0.0
0.13042043962 0.552641 -0.002025
0.12571021981 0.552641 -0.002025
0.137577575001 0.548891152172 -0.002025
0.139854894013 0.546201521641 -0.002025
0.130289851693 0.552641 0.0
0.132992379009 0.548884580307 -0.002025
0.137371130714 0.548536216561 0.0
0.13995035789 0.544702514918 0.0
0.0736395716655 0.552641 0.0
0.0737586997968 0.552641 -0.002025
0.125568995024 0.552641 0.0
0.121 0.552641 -0.002025
0.120848138355 0.552641 0.0
0.0783604283345 0.552641 0.0
0.0287914333107 0.540326638804 0.0
0.0288794646038 0.540323662259 -0.002025
0.0335122899796 0.540326638804 0.0
0.0336035946241 0.540323662259 -0.002025
0.0123313804115 0.528419432381 -0.002025
0.0123313804115 0.528419432381 0.0
0.0217986914832 0.536696682682 -0.002025
0.0163754882953 0.530654498573 -0.002025
0.0163597739958 0.530633202805 0.0
0.0216779952827 0.536541395979 0.0
0.0200521521602 0.532976625685 -0.002025
0.0199834289429 0.532722259717 0.0
0.0264310049762 0.536221851739 0.0
0.0265271543348 0.536279542554 -0.002025
0.0123313804115 0.523679859429 -0.002025
0.0123313804115 0.518940286476 -0.002025
0.0123313804115 0.523679859429 0.0
0.00822092027436 0.5165705 0.0
0.0123313804115 0.518940286476 0.0
0.0 0.488157556731 -0.002025
0.0 0.49761220819 0.0
0.0 0.492872636597 0.0
0.0021690425596 0.494656742706 -0.0010125
0.0 0.49761220819 -0.002025
0.0 0.492872636597 -0.002025
0.00411046013718 0.504721567619 -0.002025
0.00411046013718 0.504721567619 0.0
0.00411046013718 0.499981994666 -0.002025
0.00397890165359 0.499670190075 -0.0010125
0.00411046013718 0.499981994666 0.0
0.00822092027436 0.511830927047 0.0
0.00822092027436 0.511830927047 -0.002025
0.00822092027436 0.507091354095 0.0
0.00822092027436 0.507091354095 -0.002025
0.0123313804115 0.514200713524 -0.002025
0.0382331466485 0.540326638804 0.0
0.0383277246444 0.540323662259 -0.002025
0.0429540033175 0.540326638804 0.0
0.0430518546647 0.540323662259 -0.002025
0.0476748599864 0.540326638804 0.0
0.0477759846851 0.540323662259 -0.002025
0.00358330541074 0.490448959055 0.0
0.00299920374473 0.48645311717 0.0
0.0029773344929 0.486348130032 -0.002025
0.00301590676507 0.483020337691 0.0
0.00293640644896 0.4805 0.0
0.00574447624759 0.484503205838 0.0
0.00570822739252 0.484327754113 -0.0010125
0.00301993190233 0.483029043936 -0.002025
0.00293640644896 0.4805 -0.002025
0.00574149095343 0.484468867962 -0.002025
0.0784828298171 0.552641 -0.002025
0.0830812850034 0.552641 0.0
0.0832069598375 0.552641 -0.002025
0.0618374299932 0.548536212935 0.0
0.061948374746 0.548535220753 -0.002025
0.0665582866621 0.548536212935 0.0
0.0666725047663 0.548535220753 -0.002025
0.0712791433311 0.548536212935 0.0
0.0713966347867 0.548535220753 -0.002025
0.0594770016587 0.54443142587 0.0
0.0595863097359 0.544429441506 -0.002025
0.0525001147054 0.540323662259 -0.002025
0.0523957166553 0.540326638804 0.0
0.0571165733243 0.540326638804 0.0
0.0572242447257 0.540323662259 -0.002025
0.116127281686 0.552641 0.0
0.11627586998 0.552641 -0.002025
0.13997943118 0.542410794759 -0.002025
0.143004611966 0.540845035525 0.0
0.143789302877 0.540232959616 -0.002025
0.147889760174 0.537859264983 0.0
0.147889762033 0.537858569053 -0.002025
0.152 0.535489841926 0.0
0.152 0.535489149063 -0.002025
0.132650280027 0.548536212935 0.0
0.12829145956 0.549375057765 -0.002025
0.12433657695 0.549805082922 -0.002025
0.135865199825 0.544541948029 -0.002025
0.130707489486 0.545346906745 -0.002025
0.127929423358 0.548536212935 0.0
0.135088022694 0.544495923106 0.0
0.136816310796 0.5406025022 -0.002025
0.137651096199 0.540476427018 0.0
0.076 0.548536212935 0.0
0.076120764807 0.548535220753 -0.002025
0.123208566689 0.548536212935 0.0
0.117839032065 0.549064601646 -0.002025
0.121 0.54791757265 -0.002025
0.0878021416723 0.552641 0.0
0.0879310898578 0.552641 -0.002025
0.111406425017 0.552641 0.0
0.111551739959 0.552641 -0.002025
[...]
POINT_DATA 17773
VECTORS FID_FibreOrientation double
1.7155963297 1.17912617629 0.782310941445
1.71538375469 1.17921540044 0.782408908007
1.71643020081 1.17826338489 0.78319833096
1.71699847459 1.17856168994 0.783687686394
1.71646493678 1.17965805771 0.782984012632
1.71585997175 1.17917891047 0.782746353572
1.7153207585 1.18028027242 0.781716871385
1.71500051892 1.17983634148 0.781912649296
1.71942897812 1.17726894822 0.785385091282
1.72044842344 1.17817032825 0.786199805164
1.71498032767 1.18166446499 0.780797557617
1.71517399346 1.18229930491 0.78061320002
1.71780489595 1.17890520964 0.784016181043
1.71890738908 1.17944278618 0.784613303736
1.71680901077 1.18122403424 0.782310806547
1.71613662506 1.18052157405 0.782163775891
1.71569573109 1.18439252281 0.779532336775
1.715120301 1.18390573191 0.779589498688
1.73380738819 1.17416941358 0.790918161313
1.72461549002 1.18038295556 0.785336393526
1.71728488324 1.18302013065 0.781493777989
1.72349723979 1.17867766174 0.788351711486
1.72168431292 1.17909474627 0.786264945589
1.71665011963 1.18273673456 0.781031944327
1.71912560121 1.1809808871 0.783251340826
1.7198248111 1.18199083935 0.783678172293
1.71811161049 1.18228677159 0.782413637208
1.72088600722 1.19008500807 0.79704541195
1.68791562027 1.19846786482 0.760100427463
1.68281343204 1.17022460293 0.769262167679
1.6820314259 1.16974711031 0.769260238506
1.53971773461 1.25886252616 0.579394883008
1.42210932421 1.22367645772 0.516007680897
1.34453546277 1.19643936178 0.165353619439
1.14781138787 1.15054243701 0.14565217241
1.7158766834 1.18619338987 0.778518785957
1.71535434579 1.18569052907 0.77848756861
1.71728723888 1.18493835776 0.780387261206
1.71698052462 1.18452260946 0.780001509862
1.71765605938 1.17748391492 0.780067743857
1.71592114395 1.17881496915 0.793698491793
1.71991285396 1.18387015947 0.782532956459
1.72105549787 1.18336392666 0.783435531807
1.71968822346 1.18239072195 0.785840805241
1.71985519133 1.1835012122 0.782376653972
1.62735624474 1.18402070583 0.741394393254
1.59426764256 1.16948509136 0.673770660496
1.71606932294 1.18805434316 0.777466377633
1.71556587818 1.18759484944 0.777444253992
1.71604410628 1.18997829034 0.776205204984
1.71557497721 1.18944663121 0.776224392074
1.30255770524 1.14975910022 -0.191593383527
1.19963212192 1.13142065123 -0.185087882362
1.3236122067 1.14788180063 -0.354186480562
1.2783207305 1.13176227035 -0.347812648457
1.34158453291 1.15833349177 -0.410854880021
1.32528483735 1.14762979864 -0.4076405999
1.35020721113 1.17215946253 -0.42542169837
1.34306636961 1.16149483299 -0.423438472436
1.34911562635 1.17485101614 -0.419334670544
1.34818971882 1.17081747502 -0.419081268304
1.68355679985 1.16850817068 0.771266333985
1.68327089787 1.16796960958 0.771286997122
1.68255391837 1.16835976507 0.771019038551
1.68135989554 1.16683398814 0.771667142566
1.6803540148 1.16710136938 0.770271374131
1.67957930474 1.16591302347 0.770671928589
1.68370802268 1.16434783044 0.773902950734
1.68505452138 1.16507190622 0.772942146953
1.43038634811 1.17185909481 0.455406783145
1.212457865 1.15502334023 0.383159283221
1.30528181619 1.15793630555 -0.0180782783459
1.16166327918 1.15108765094 -0.0207180119244
1.71770176574 1.18670663907 0.779299190721
1.71736741488 1.18624096043 0.77896483515
1.67640597788 1.18463721654 0.756119149205
1.72037034477 1.18523501667 0.78175579162
1.71992827082 1.18460621077 0.781197722435
1.71272042623 1.1819791253 0.788353110725
1.72172834696 1.18449060608 0.782112064601
1.69797528458 1.18166400117 0.771072197942
1.72220819454 1.18279005985 0.782831649455
1.72185312957 1.1841728112 0.78290888372
1.54159176268 1.16661644035 0.663530887955
1.40886402504 1.1662766792 0.556777712778
1.71776842177 1.18841367725 0.778154140025
1.71747279264 1.18791712386 0.777844294133
1.71527492462 1.19151899704 0.774717762064
1.71777153244 1.19038429652 0.776782448774
1.71576265417 1.19209660421 0.77475883962
1.71733231193 1.18984133774 0.776505207389
1.71479867843 1.19326085703 0.773285881322
1.71524299217 1.19397637624 0.773185836006
1.71415618735 1.1950102661 0.771818816708
1.71412061971 1.19545287245 0.771707620878
1.30797583355 1.15838879381 -0.256496192639
1.24049863509 1.15234227877 -0.247230691149
1.32954375826 1.16334619408 -0.36123038603
1.30049148584 1.15644949559 -0.355520038816
1.34617109135 1.17171017627 -0.40605156642
1.3309400859 1.16208986936 -0.401775080237
1.34902093712 1.17711888524 -0.414873503007
1.34946156192 1.17565880803 -0.414978137829
1.34814230298 1.17582536249 -0.413101045485
1.34398910878 1.17041288147 -0.412069136189
1.34879755528 1.17810601476 -0.412285215848
1.34833706234 1.17565408284 -0.412705864758
1.68339017786 1.16615029286 0.772704346029
1.68187284268 1.16502741454 0.773445959726
1.68093002696 1.16588223545 0.771919425354
1.68027360098 1.16531223995 0.772157297326
1.67911578273 1.16396541451 0.771590376399
1.67908499124 1.16341663582 0.771580469758
1.68211161825 1.16048877449 0.774948017661
1.68175545514 1.16199994853 0.775135282679
1.6784195397 1.15528016114 0.775364611095
1.6834038337 1.16119254087 0.773518555894
1.68260420865 1.16237297562 0.774371352081
1.34629887986 1.16080292279 0.186762351513
1.14680269162 1.14561158072 0.13750287165
1.30347130717 1.16087137298 -0.151103698725
1.20493306177 1.161021426 -0.14436862507
1.7209696905 1.18711466578 0.780585457198
1.72002029099 1.18647760363 0.780021141467
1.6076097341 1.17720039883 0.669544418561
1.72220586077 1.18663751927 0.781311552542
1.72201040003 1.18512749475 0.782644523817
1.66106916605 1.17775904616 0.763277873761
1.69033014994 1.18912744379 0.757916357618
1.71306324704 1.18231892804 0.785390364017
1.44602006408 1.16983629313 0.492758894865
1.22256015335 1.16436027333 0.409111992973
1.72064924715 1.18865360392 0.779389587634
1.72016900127 1.18826134068 0.778812253895
1.71679872577 1.19197181022 0.774874659592
1.72136015835 1.19116829476 0.777816987163
1.71741484961 1.19263395016 0.775295855388
1.72020345026 1.19050215013 0.777458452606
1.71344389811 1.19681652841 0.770476395281
1.71291290007 1.19625938333 0.770436986145
1.71251092216 1.19801390567 0.769168865458
1.71189585326 1.19739696744 0.769210022617
1.71604358626 1.19393515253 0.773260877785
1.71647811451 1.19437387632 0.773481670461
1.71656625634 1.19461062361 0.773670369294
1.71524791037 1.19577764319 0.771720359455
1.71567049647 1.19635085614 0.772153207948
1.72008753974 1.1937286177 0.776182383766
1.31964721434 1.16693733597 -0.307486356916
1.27533101931 1.16484569312 -0.29892641643
1.34124642574 1.17250373775 -0.378840337606
1.31536108633 1.16732664299 -0.370412568107
1.34666364221 1.1768919819 -0.401923027566
1.3367835425 1.17284397943 -0.398388862068
1.70849471563 1.20295549158 0.76410063736
1.70759561081 1.20660788042 0.761212287576
1.70798757203 1.20885480969 0.759615079327
1.70801621129 1.20769145929 0.760814821218
1.70870450604 1.20959302194 0.759395545065
1.34971877323 1.17914740624 -0.412213517337
1.35027880809 1.17871277231 -0.412262135633
1.35102424612 1.18094033139 -0.411006327093
1.35138062829 1.18092777862 -0.410924255583
1.35290831508 1.18269772767 -0.410960048967
1.35300395263 1.18276909667 -0.410736488833
1.34937890718 1.17977442444 -0.411311779226
1.34995809711 1.17855003059 -0.411569882223
1.34884747681 1.17966481636 -0.408055086556
1.34560204127 1.17720815225 -0.407335415753
1.34960035109 1.18159172301 -0.40870840674
1.3489149699 1.1801091265 -0.40923486594
1.6815202728 1.1635924802 0.774272491516
1.68088778619 1.16312794177 0.773959491158
1.68074985414 1.16430314937 0.773212388618
1.68066738594 1.16464482874 0.772505663722
1.68113633243 1.16375637534 0.772634793508
1.68115398766 1.16381448543 0.77215288574
1.68031909388 1.1562826214 0.774791551692
1.68106659504 1.15251149234 0.77591869121
1.70878966603 1.16124077002 0.778824327106
1.68149127295 1.15791483663 0.776530297005
1.68205365326 1.16047348555 0.775425853231
1.68098967845 1.15769801351 0.778062037119
1.68496585026 1.15387597048 0.778336695191
1.68295155597 1.15744414072 0.776997665465
1.6818196215 1.16076901058 0.775929519926
1.35528609374 1.18456607787 -0.411699108552
1.35517741686 1.18452613347 -0.411343437226
1.73870798694 1.17081949522 0.811201930511
1.94147824493 1.35170184162 0.891874121339
1.85286903699 1.25425879094 0.864215658196
1.35804835723 1.18669705541 -0.412832502079
1.30690502413 1.16112967523 -0.014260885772
1.17140858479 1.1583837575 -0.0301896016025
1.31167902156 1.16631026786 -0.242991880405
1.24650322289 1.16691706902 -0.233264300372
1.72309520694 1.18597121908 0.78152954427
1.7208407267 1.18554630106 0.781859508765
1.4342875571 1.17465737672 0.57144180031
1.7066894444 1.18609625482 0.771705105937
1.70990825626 1.18559826983 0.784778142197
1.57946693164 1.18282994711 0.692420059306
1.56340190343 1.17926809394 0.691320299665
1.63247006342 1.18354417516 0.76243343879
1.37017746587 1.17055810259 0.210995761352
1.16392520751 1.15833461274 0.15668589312
1.72279697791 1.18885741188 0.77922588409
1.72090825944 1.19258812934 0.777808629579
1.72185671605 1.18832981027 0.780724779257
1.71972448813 1.19303067155 0.775843221961
1.72232805678 1.1920154998 0.778817126512
1.70861981457 1.20427035557 0.763580220039
1.71082857635 1.19856288539 0.767949763895
1.70974825764 1.20029099035 0.766464343175
1.71106851386 1.20031425786 0.767107657882
1.71122521782 1.19926822556 0.767836626909
1.70981286703 1.20117159844 0.76613835861
1.71450322543 1.19783378463 0.770629736882
1.71413612812 1.19723698931 0.770347811131
1.71333837593 1.19929385657 0.769300862489
1.71310170585 1.19900741188 0.768946307867
1.7129687289 1.19861369886 0.768892398196
1.71804050745 1.19511868307 0.773771589817
1.71908946554 1.19576512743 0.774149628831
1.71721344112 1.1969419983 0.772338005196
1.7179221008 1.19760340783 0.772824622419
1.72196064605 1.19654764634 0.7742179891
1.33682217878 1.17344667412 -0.349037324193
1.29925591152 1.17062392505 -0.335394840482
1.34427558417 1.1776102096 -0.388232861606
1.32823232775 1.17512117141 -0.381133725799
1.3484940681 1.18043159077 -0.402492793505
1.3421308207 1.17886030298 -0.399643956588
1.71058929762 1.20221173906 0.765349155181
1.70955613553 1.20488629208 0.763260169209
1.71037509354 1.20631594109 0.7630837
1.70949487234 1.20766030448 0.761056190057
1.70917086918 1.20895051099 0.759627505058
1.7117843594 1.20690559807 0.762981259142
1.71234236053 1.20759749947 0.762954298369
1.7100236184 1.20870952362 0.76141819544
1.71048759147 1.21021663302 0.760226984407
1.71271453404 1.20817442181 0.763304815933
1.3578490047 1.18640943073 -0.412352213124
1.36102393645 1.18932110747 -0.413873276701
1.36092876991 1.18863478898 -0.413267934452
1.3504811665 1.18161626392 -0.410608917492
1.35078358414 1.18100938422 -0.410742053093
1.35183317362 1.18358605715 -0.410232969627
1.35186099832 1.18303950099 -0.410397632429
1.35358170626 1.18528765643 -0.410700947135
1.35334308885 1.18490593238 -0.410555601568
1.35027137868 1.18318409388 -0.408838995021
1.35018300383 1.18231895265 -0.40949048615
1.34805306686 1.18167117746 -0.405813566669
1.3495526114 1.18259153163 -0.406365706834
1.35020257599 1.18421786899 -0.407329785127
1.3498460916 1.18360292351 -0.407854242941
1.67422205961 1.25675417607 0.729422504199
1.66623387066 1.09709757955 0.770198672696
1.68270323856 1.16239911924 0.77471943279
1.68277514311 1.1640761729 0.774803021093
1.68238878325 1.16473250438 0.773013385318
1.68270365467 1.16612615029 0.773063072512
1.68279562006 1.16593338929 0.772302173255
1.68445934069 1.16606573431 0.773068241788
1.68461542791 1.16624251252 0.772389423293
1.68645461279 1.15421315616 0.780847168519
1.70369176689 1.15558855787 0.782756694966
1.7594875247 1.13817061981 0.809531330909
1.68459946478 1.15862946567 0.776285621913
1.69733478662 1.15555042774 0.781227628925
1.71755968945 1.16658331529 0.802797060043
1.68794728158 1.15763099948 0.780670589661
1.685541447 1.16250784122 0.774007011666
1.68711672677 1.16245700572 0.777270028141
1.355463185 1.18738438641 -0.411141722047
1.35522619777 1.1867883983 -0.41100323454
1.766905101 1.15193777676 0.833159453952
1.71097872214 1.27522908772 0.850611381814
1.79822963578 1.20642709107 0.882161514873
1.36388322555 1.19352758499 -0.41396201444
1.3649375895 1.19156012958 -0.413509420709
1.23190385074 1.19863328101 0.31242407454
1.51731076838 1.23650931379 0.413311236916
1.36127048921 1.23854837533 -0.106364880549
1.36452769736 1.22574552901 -0.318913035153
1.22038061989 1.1883384 -0.102224998327
1.36477334876 1.19860441916 -0.408689608593
1.36839193866 1.19699288715 -0.408613881269
1.3240118825 1.21021568141 -0.318992625743
1.35755516572 1.20574327329 -0.387926164127
1.37031774099 1.20647321877 -0.389519316276
1.67435376979 1.18966570483 0.762313911695
1.35767658436 1.1896427338 -0.411731764075
1.30453535732 1.1665944518 -0.151677426164
1.32839349449 1.17292239587 -0.306422578516
1.2186922674 1.16454093659 -0.15337649841
1.27727231556 1.16977535946 -0.28862044476
1.70397577649 1.18600938211 0.760337591044
1.7198720593 1.18470275047 0.787790899956
1.28221985654 1.16643346663 0.443943506205
1.51286623694 1.17627878918 0.632086073079
1.62936235142 1.18309034656 0.717738610313
1.48201179253 1.17580921254 0.524413853248
1.31729354311 1.16763753692 0.000560257833484
1.1788138838 1.16303828012 -0.0155106957923
1.70569510875 1.19047530132 0.768725391809
1.70603809449 1.19246593126 0.764401702672
1.71342805283 1.18686496282 0.784928514685
1.72127247505 1.19495220943 0.77548564149
1.71720945882 1.1927154927 0.78091780978
1.7113012873 1.20337396319 0.765612207063
1.71183908354 1.20011751056 0.767376609347
1.71234363005 1.20087973782 0.767849556675
1.71660505384 1.19907547723 0.771436018024
1.71590747039 1.19844003071 0.770718900806
1.71578347747 1.20040177344 0.770067735438
1.71490940933 1.19999594901 0.769293444457
1.57592470314 1.18586905165 0.680763718737
1.72046577363 1.19736231534 0.774699238321
1.71951943312 1.19655154632 0.774587521614
1.71870425228 1.19763404867 0.772920739476
1.71936910986 1.198397454 0.77319277483
1.71374970325 1.19532140512 0.770390949204
1.57289431292 1.18101199244 0.676284041863
1.34038071305 1.17717988585 -0.367813357775
1.3168440775 1.17484861728 -0.358681783372
1.34711889189 1.18007558851 -0.393731375615
1.33691157488 1.17875046587 -0.389392491441
1.34994937141 1.18235487485 -0.403637170133
1.34588334135 1.18173070236 -0.401930894729
1.7127402619 1.20474973903 0.765155085613
1.7146880944 1.20209360237 0.767902070584
1.71383323018 1.20563010816 0.765475265189
1.71240020515 1.2100096741 0.760896903868
1.71524941022 1.20735399245 0.764677079476
1.71627654282 1.20840252406 0.764916734753
1.71413840406 1.21095280202 0.761858985492
1.35743769664 1.18883068921 -0.411338709542
1.35927683022 1.19225105601 -0.411350322158
1.3601194733 1.19131606123 -0.410943786087
1.35110437918 1.1846952732 -0.408849906477
1.35104519027 1.18417972719 -0.409399313375
1.35210879202 1.18633866404 -0.409108469644
1.35199575584 1.18591698542 -0.409488013019
1.35344563363 1.1880478208 -0.409636884734
1.35317671247 1.18765546239 -0.409813707544
1.35082533603 1.18550432677 -0.407964145421
1.35062586777 1.18526600863 -0.408388585105
1.3494660652 1.18411967758 -0.406558168006
1.35078919412 1.18407754508 -0.406949737131
1.35093280183 1.18549234146 -0.4079738612
1.35044823535 1.18577408193 -0.408070567995
1.47335017413 1.30181391985 0.631412705956
1.60373548788 1.2564415848 0.662475301549
1.68861169845 1.16445992749 0.774758541119
1.68572453068 1.16559578362 0.773540345903
1.68641198714 1.16568941183 0.775966640113
1.68553794841 1.1671129047 0.774169821677
1.68486003354 1.16769923011 0.772338354815
1.68575647931 1.16859150519 0.773035339936
1.68596241116 1.16845735205 0.772067233755
1.68820700455 1.16931290367 0.773213074507
1.68840011371 1.1696473927 0.772374091018
1.70635780393 1.15681216855 0.792690208108
1.74055836754 1.14160433136 0.804297315615
1.69378181274 1.16041449847 0.777891499
1.70883376291 1.1556622112 0.786582909298
1.74172212426 1.14140070808 0.815832699559
1.69760018688 1.15981263451 0.784754962081
1.69627936551 1.16404604614 0.77783844517
1.69216650691 1.16555106543 0.779023841537
1.35473592863 1.18977141202 -0.410172948799
1.35457568744 1.18946878774 -0.410196160287
1.69784034734 1.17045124631 0.802956214246
1.64792209002 1.18917501208 0.902396330101
1.73480578198 1.15524143041 0.822497991675
1.35982479624 1.1954705662 -0.408630288639
1.36244090078 1.19476575924 -0.408507338874
1.14698794314 1.17653217603 -0.00925993577644
1.367157953 1.22143065279 -0.00717218473688
1.28465838093 1.19983481567 -0.18726867278
1.36315660257 1.20040187609 -0.397738620014
1.34400712225 1.21403194713 -0.280768193647
1.36126357909 1.20970968012 -0.369119820959
1.28410128044 1.19983440616 -0.275914915224
1.35653426978 1.19796895396 -0.398107085537
1.34218471639 1.19958046452 -0.370074849211
1.53054956872 1.24388989644 0.700785267315
1.35599415122 1.1916330084 -0.410370781859
1.31636329124 1.17379966538 -0.234192196679
1.33432885794 1.17518213666 -0.342719888065
1.24711399897 1.16682701245 -0.22149853999
1.30025534848 1.17362110135 -0.328853097191
1.28946928895 1.15832564784 0.463354829923
1.19731167348 1.16683763514 0.205574682273
1.57830841699 1.1743000582 0.660672512092
1.6258883655 1.19070631793 0.739728683014
1.28737762247 1.1716307411 0.210479121776
1.49193335281 1.18690554501 0.52805718592
1.38448602668 1.17102575622 0.2439600177
1.31388222455 1.17068530044 -0.12953750282
1.20524079785 1.16242907509 -0.119704058182
1.32219019776 1.17519852743 -0.293584445434
1.63312592326 1.19167248794 0.700693597848
1.64448852973 1.18917297325 0.750630628766
1.71997218641 1.19802306281 0.780604236561
1.66787486094 1.18960862022 0.740449965814
1.7155613007 1.20239405298 0.76855500206
1.71878021209 1.19997555168 0.772291649764
1.71794631959 1.19893008833 0.772182986989
1.71861958132 1.20099808535 0.771747817874
1.71829541406 1.20004317899 0.771141054073
1.71894452189 1.19384487112 0.772786431651
1.72102455485 1.19738497211 0.771508364505
1.2745887748 1.1713731617 0.472765648178
1.29754058266 1.16790826633 0.453768522754
1.71040320374 1.19469186196 0.765083995443
1.7163405099 1.19938935565 0.768977669976
1.57937199348 1.18384648056 0.683851834673
1.34692582241 1.16956524379 0.496209529131
1.34460633643 1.17897252687 -0.38219024422
1.3286590366 1.17744905677 -0.375547173423
1.34012079655 1.17702993787 -0.365434821543
1.34922561219 1.18128227883 -0.399421726915
1.34232352451 1.18065536561 -0.396282206981
1.35015539851 1.18320020924 -0.405633181093
1.34807309039 1.18311119371 -0.404731459733
1.71638144724 1.20408265165 0.767671150792
1.71714806833 1.20240421127 0.769888039071
1.71709557853 1.20497074182 0.767903898249
1.71814440961 1.21007026228 0.763948521201
1.71918873284 1.20646161257 0.767993104748
1.71945694408 1.20724299031 0.767135432985
1.71837156385 1.2106751418 0.764187246879
1.35607426413 1.19142190388 -0.410214421375
1.35642195337 1.19357221901 -0.409476649382
1.35786341843 1.19383328555 -0.409163484841
1.35903325881 1.19663219749 -0.406006970385
1.35131470074 1.18699832656 -0.408233729847
1.35113684863 1.18679095882 -0.408661534794
1.35199251353 1.18839982773 -0.408798829714
1.35168573617 1.18827537024 -0.409058990367
1.3527577654 1.1896190392 -0.409633361793
1.35246233245 1.1897867571 -0.409702747059
1.35097442129 1.18676322066 -0.408456646418
1.35068609431 1.18717943505 -0.408657112216
1.35017518951 1.18512865719 -0.407998154897
1.35096772282 1.18466173009 -0.408478724864
1.35050103375 1.1866288938 -0.409268306117
1.35084488081 1.18600535514 -0.40925848659
1.40275995095 1.23936890752 0.191774715495
1.25400255028 1.28882017932 0.312067485823
1.53202078246 1.24162452076 0.645032063603
1.68996714147 1.16726914365 0.774201514221
1.68864379752 1.16910809888 0.77325606237
1.68886051307 1.16922465416 0.775130816713
1.6886185393 1.17067976805 0.773875031386
1.68834231728 1.17078075153 0.77218398389
1.68953032852 1.17168720449 0.773015998956
1.68948450994 1.17181823775 0.771821077422
1.69173581957 1.1730082267 0.772908387736